material_id,formula_pretty,is_fit,rms_A,a_A,b_A,c_A,volume_A3,band_gap,formation_energy_per_atom
mp-1225558,ErCo3Ni2,True,6.845502639605276e-07,4.8128878815410285,4.8128878815410285,4.02729,80.78951943993688,0.0,-0.19252727833333202
mp-1018723,HoCo3Cu2,True,6.850318827223812e-07,4.881652153964114,4.881652153964114,4.067879,83.95224578190108,0.0,-0.09816219749999801
mp-1223880,HoCo3Ni2,True,6.852540301282851e-07,4.831456158800157,4.831456158800157,4.018336,81.2330885909208,0.0,-0.18507992749999802
mp-1018743,LaNi3Rh2,True,6.85756332143042e-07,5.077330102452172,5.077330102452172,4.204556,93.86886631849602,0.0,-0.27917518083333204
mp-1217318,ThMn3Ni2,True,6.862340267362296e-07,5.01671030162824,5.01671030162824,4.137258,90.17398892091542,0.0,-0.06019535563218201
mp-1215948,YCo3Ni2,True,6.863332787517524e-07,4.863590219281118,4.863590219281118,4.007545,82.09618806795153,0.0,-0.16531446666666702
mp-1217368,ThFe3Co2,True,6.866885069849415e-07,4.899379764963565,4.899379764963565,4.024673,83.66492773134958,0.0,-0.05889737999999801
mp-1211224,LaCo3Ni2,True,6.867123026881695e-07,4.960751890069135,4.960751890069135,4.074251,86.83072466841817,0.0,-0.09927050083333301
mp-1218349,SrAg3Pd2,True,6.867344835246269e-07,5.548575314102725,5.548575314102725,4.55615608,121.47647907506409,0.0,-0.32218655416666603
mp-1219088,SmCo3Ni2,True,6.867994223123214e-07,4.923375893794716,4.923375893794716,4.040514,84.81901747568975,0.0,-0.13997590583333402
mp-1226659,CeCo3Cu2,True,6.878783987248617e-07,4.944998047777218,4.944998047777218,4.020631,85.14459763613029,0.0,-0.07235461999999901
mp-1215563,YbCu2Ni3,True,6.8823394307995e-07,4.843572154477839,4.843572154477839,3.9260950859747092,79.76695115861496,0.0,-0.275421745833334
mp-1222937,LaCo2Ni3,True,6.883660873429922e-07,4.95006983956393,4.95006983956393,4.007845,85.0480188921937,0.0,-0.12261450416666701
mp-1222942,LaCu3Ni2,True,6.886240876180618e-07,5.010197653124228,5.010197653124228,4.04750259,87.98881836094277,0.0,-0.23386799916667103
mp-1225214,EuAl3Ag2,True,6.911661327516036e-07,5.561624573242989,5.561624573242989,4.39545079,117.7436223163239,0.0,-0.34761713916666703
mp-21201,LaGa3Pd2,True,6.914903304251256e-07,5.443680852718185,5.443680852718185,4.2902142,110.10192683316593,0.0,-0.806249142499998
mp-1217327,ThMn2Ni3,True,6.917469616431361e-07,5.0673335784792,5.0673335784792,3.984774,88.61215851123352,0.0,-0.22276005097701002
mp-2903,UAl3Ni2,True,6.921972485520479e-07,5.147230026361218,5.147230026361218,4.031899,92.50973356051122,0.0,-0.40576017666666503
mp-1222916,LaCu2Ni3,True,6.928213876945629e-07,5.0413617684543635,5.0413617684543635,3.92775182,86.45107486919093,0.0,-0.26067489583332504
mp-4785,CeAl3Pd2,True,6.930193398411444e-07,5.432649333046886,5.432649333046886,4.22537958,107.99899323266565,0.0,-0.8546510016666651
mp-1025102,CeAl3Pt2,True,6.93561826104625e-07,5.4669818726802974,5.4669818726802974,4.232217,109.54531960245727,0.0,-0.9723914549999981
mp-11539,SmAl3Pd2,True,6.937597652040097e-07,5.425409813983222,5.425409813983222,4.19286401,106.88247597501189,0.0,-0.9046129499999981
mp-12734,NdAl3Pd2,True,6.942148207675784e-07,5.4598964602613576,5.4598964602613576,4.20297352,108.50658604624581,0.0,-0.850864329583335
mp-1216696,UGa2Cu3,True,6.945079899366213e-07,5.239928103056423,5.239928103056423,4.023449,95.67088437494783,0.0,0.083847299166667
mp-20338,CeAl3Ni2,True,6.949455368473434e-07,5.250375460967173,5.250375460967173,4.01627272,95.88144046403251,0.0,-0.608201551666667
mp-1206258,NpAl3Pd2,True,6.949614330875871e-07,5.4736918594909945,5.4736918594909945,4.186524,108.62878133559573,0.0,-0.6399809227083321
mp-568354,DyGa2Cu3,True,6.950673505899779e-07,5.254933853117514,5.254933853117514,4.015535,96.03035950052983,0.0,-0.37012426246211505
mp-30182,ThAl3Ni2,True,6.951033184969528e-07,5.29107450875102,5.29107450875102,4.04189658,97.99492465223389,0.0,-0.6543779616666661
mp-1222765,LaZn3Ni2,True,6.951217284290073e-07,5.2704711779187505,5.2704711779187505,4.02551774,96.83921536881077,0.0,-0.36803193250000005
mp-1217304,ThMn2Co3,True,6.951546060182835e-07,5.112965807445271,5.112965807445271,3.904109,88.38902491720074,0.0,-0.09337977931034401
mp-1018742,LaNi2Rh3,True,6.957565838454427e-07,5.266544151354054,5.266544151354054,4.00053426,96.09484364153487,0.0,-0.361747004166661
mp-1206184,CeAl2Cu3,True,6.959176416536774e-07,5.31394041820962,5.31394041820962,4.030929,98.57553472985617,0.0,-0.29771264833333505
mp-1025043,UAl2Cu3,True,6.959530230128017e-07,5.247966054474295,5.247966054474295,3.979668,94.92038894714852,0.0,-0.030452839999998003
mp-1207556,YbGa2Cu3,True,6.959789112596107e-07,5.178751393412785,5.178751393412785,3.9263032110439173,91.19364887589786,0.0,-0.347933045833331
mp-1208292,TbAl3Cu2,True,6.95990042257918e-07,5.31329320012868,5.31329320012868,4.02791989,98.47795469049305,0.0,-0.49504437333333307
mp-7186,NdAl3Ni2,True,6.966774713362558e-07,5.310009237507781,5.310009237507781,4.00161386,97.71390362761163,0.0,-0.610513811249999
mp-1226538,CeZn2Ni3,True,6.969996414429926e-07,5.148842127080399,5.148842127080399,3.86938259,88.83650341556111,0.0,-0.32714015166666605
mp-1025136,EuAl3Cu2,True,6.970800241758656e-07,5.419676971280253,5.419676971280253,4.07009126,103.53366382224992,0.0,-0.37079765416667004
mp-568687,TbGa2Co3,True,7.003261548365944e-07,5.186030689844734,5.186030689844734,3.78700536,88.20571333103852,0.0,-0.37003990861110503
mp-1220219,NdGa2Pt3,True,7.027279030764306e-07,5.584433125919144,5.584433125919144,3.99424907,107.87578365271939,0.0,-0.8909984970833281
mp-1223084,LaGa2Pt3,True,7.032879023010629e-07,5.6278707582774,5.6278707582774,4.00590355,109.88017723381894,0.0,-0.9221258483333331
mp-10897,PrAl2Ni3,True,7.04095699182808e-07,5.321853048444981,5.321853048444981,3.76175416,92.26708457907691,0.0,-0.526097195277776
mp-1219978,PrGa2Co3,True,7.056609819498606e-07,5.358789881551103,5.358789881551103,3.737016,92.93708494287695,0.0,-0.367965476111114
mp-754875,TbSi2Rh3,True,7.112970140077093e-07,5.494152130081053,5.494152130081053,3.64940435,95.40123093889197,0.0,-1.021624016111112
mp-569601,ErSi2Rh3,True,7.11403251559391e-07,5.435096109308468,5.435096109308468,3.60686629,92.27310415116085,0.0,-1.011985113333333
mp-571044,CeSi2Ir3,True,7.116718796335592e-07,5.526395197009281,5.526395197009281,3.65895556,96.77688593277826,0.0,-0.9145571933333331
mp-622508,GdSi2Rh3,True,7.117083404562747e-07,5.512994758648954,5.512994758648954,3.6489340220740885,96.04434556033623,0.0,-1.019235991666669
mp-568555,SmSi2Rh3,True,7.121199434617168e-07,5.533836233399002,5.533836233399002,3.64973037,96.79301510222841,0.0,-1.017576474166665
mp-30028,YSi2Rh3,True,7.122858735215512e-07,5.471937707216056,5.471937707216056,3.60373789,93.44716216558193,0.0,-1.014111471666666
mp-1025017,NdSi2Ru3,True,7.15554411500544e-07,5.652501858429812,5.652501858429812,3.6190160000000002,100.13884143247778,0.0,-0.6960173295833321
mp-30043,CeSi2Ru3,True,7.1567227134789e-07,5.6297941636471025,5.6297941636471025,3.600809,98.83613412652893,0.0,-0.685222316666666
mp-10059,ZrCo3B2,True,7.185057561665406e-07,4.828893518807041,4.828893518807041,3.01385539,60.862291513667834,0.0,-0.48141045666666504
mp-10058,YbCo3B2,True,7.226769799526777e-07,4.929065931307202,4.929065931307202,2.967438054202079,62.436931045956854,0.0,-0.46122105500000005
mp-5313,HoCo3B2,True,7.235006136086238e-07,4.966661056900568,4.966661056900568,2.9688555,63.423285829307964,0.0,-0.493031105555554
mp-20193,DyCo3B2,True,7.263887370429229e-07,5.022953732134226,5.022953732134226,2.92844765,63.986219583282065,0.0,-0.48229062333333306
mp-5019,YCo3B2,True,7.265795026124087e-07,5.032871952936554,5.032871952936554,2.92939292,64.25989648056111,0.0,-0.46474048972222204
mp-21252,GdCo3B2,True,7.270636332252425e-07,5.059458550888167,5.059458550888167,2.93256239,65.01086983183575,0.0,-0.45376025138888504
mp-5410,SmCo3B2,True,7.277786302938741e-07,5.089332746852592,5.089332746852592,2.93169067,65.76131206160173,0.0,-0.41249696555555504
mp-1072199,PuB2Ir3,True,7.289523706743731e-07,5.479551898953096,5.479551898953096,3.124587,81.24812409921172,0.0,-0.47142135784721906
mp-4454,CeCo3B2,True,7.30044000806715e-07,5.118881772896692,5.118881772896692,2.89148443,65.61478164759072,0.0,-0.47751153305555505
mp-10065,UFe3B2,True,7.323247609217677e-07,5.067261620089159,5.067261620089159,2.806384699999999,62.405733224119054,0.0,-0.42229158972221903
mp-5578,LuB2Ru3,True,7.323844209317742e-07,5.4387868332017355,5.4387868332017355,3.01059029,77.12343480312059,0.0,-0.48595292583333305
mp-2985,HoB2Ru3,True,7.325894024062685e-07,5.464588198916613,5.464588198916613,3.01951042,78.08759443251444,0.0,-0.47519775555555505
mp-3092,DyB2Ru3,True,7.326990058532156e-07,5.472512401464647,5.472512401464647,3.02102166,78.35342399110901,0.0,-0.47139932166666604
mp-4382,YB2Ru3,True,7.327391666076894e-07,5.4788864097489665,5.4788864097489665,3.02348913,78.60019734227382,0.0,-0.46067792638888905
mp-22335,GdB2Ru3,True,7.331235543551193e-07,5.498807539551921,5.498807539551921,3.0244028,79.1967394776181,0.0,-0.45981140138889004
mp-7099,NdB2Ru3,True,7.336939838709372e-07,5.570778317466096,5.570778317466096,3.048895,81.94167794963676,0.0,-0.47130799791666306
mp-5939,PrB2Ru3,True,7.338786038887013e-07,5.586161912680699,5.586161912680699,3.052432,82.4904491530215,0.0,-0.38556736833333205
mp-29723,LaB2Ru3,True,7.348782350056798e-07,5.5810247360705345,5.5810247360705345,3.02334573,81.55420143927627,0.0,-0.41492621888889003
mp-10132,UB2Os3,True,7.351454250750682e-07,5.533246916409967,5.533246916409967,2.9905370700000002,79.29392637532396,0.0,-0.32522436805554805
mp-1072629,PuB2Ru3,True,7.376607901243997e-07,5.567123649251908,5.567123649251908,2.944010999999999,79.01904830417178,0.0,-0.34166313284721805