material_id,formula_pretty,is_fit,rms_A,a_A,b_A,c_A,volume_A3,band_gap,formation_energy_per_atom
mp-1183544,CaYO3,True,0.0,4.345546999999999,4.345546999999999,4.345546999999999,82.06034800537792,0.0,-2.822118803
mp-1016853,CaVO3,True,0.0,3.830406,3.830406,3.830406,56.19975561423256,0.0,-2.831268961
mp-1183538,CaTmO3,True,0.0,4.272108,4.272108,4.272108,77.96984479230309,0.0,-2.966752421000001
mp-5827,CaTiO3,True,0.0,3.889470999999999,3.889470999999999,3.889470999999999,58.83985762289639,1.8284999999999991,-3.491619559666667
mp-866820,CaSnS3,True,0.0,5.205274,5.205274,5.205274,141.03626094188232,0.0,-0.382448333499998
mp-866816,CaSnS3,True,0.0,5.011114999999999,5.011114999999999,5.011114999999999,125.83547952155789,0.0,-0.907392035499998
mp-20702,SmVO3,True,0.0,3.904088,3.904088,3.904088,59.5057310357224,0.0,-2.950685794000001
mp-1099583,SmTiO3,True,0.0,3.913789,3.913789,3.913789,59.95041928908818,0.0,-3.4439431466666672
mp-978506,SmSiO3,True,0.0,3.768474,3.768474,3.768474,53.517592677572,0.0,-2.8364629000000012
mp-1207179,SmSbO3,True,0.0,4.269022999999999,4.269022999999999,4.269022999999999,77.80105459668385,0.0,-2.017206656
mp-7167,SmRh3C,True,0.0,4.18469494,4.18469494,4.18469494,73.28100412492455,0.0,-0.432206347999999
mp-1075933,SmAgO3,True,0.0,4.068937,4.068937,4.068937,67.36633132962034,0.0,-1.694632306333333
mp-10606,Sm3TlC,True,0.0,5.04207852,5.04207852,5.04207852,128.182522531986,0.0,-0.338132242666669
mp-1206990,Sm3SnN,True,0.0,4.91656245,4.91656245,4.91656245,118.84603024364935,0.0,-1.066682363000002
mp-10718,Sm3SnC,True,0.0,5.73661,5.73661,5.73661,188.78434476300373,0.0,1.426484678999999
mp-19758,Sm3PbC,True,0.0,5.80783,5.80783,5.80783,195.9032708549087,0.0,1.421117882166669
mp-1016828,CdIrO3,True,0.0,3.953165,3.953165,3.953165,61.77813947332076,0.0,-0.8317978289999991
mp-1096862,CdHCl3,True,0.0,5.218407,5.218407,5.218407,142.10646763194086,0.0,-0.28174530425
mp-1016903,CdGeO3,True,0.0,3.7824900000000006,3.7824900000000006,3.7824900000000006,54.11695667257227,0.10220000000000001,-1.555840297999999
mp-1017553,CdCo3N,True,0.0,3.855044,3.855044,3.855044,57.291213052689926,0.0,-0.020277590999999002
mp-1183631,CdBO3,True,0.0,3.501721,3.501721,3.501721,42.938277854427824,0.0,-0.9883640408333321
mp-1099668,SmNiO3,True,0.0,3.740075063333333,3.740075063333333,3.740075063333333,52.31677393086354,0.0,-2.330298031999998
mp-1075973,SmMnO3,True,0.0,3.895077,3.895077,3.895077,59.09464695105582,0.0,-2.791607397586207
mp-1206999,SmGePd3,True,0.0,4.714478999999999,4.714478999999999,4.714478999999999,104.78548230971646,0.0,-0.46655511599999905
mp-978926,SmGeO3,True,0.0,3.946684,3.946684,3.946684,61.47479159443134,0.0,-2.458910103
mp-978504,SmGaO3,True,0.0,3.862136999999999,3.862136999999999,3.862136999999999,57.60803022854416,2.872,-2.9129011774999993
mp-1099588,SmFeO3,True,0.0,3.909141,3.909141,3.909141,59.73708222101029,0.723499999999999,-2.581433444000001
mp-10674,Sm3AlN,True,0.0,5.468393,5.468393,5.468393,163.52311671493808,0.0,1.001796234249997
mp-7144,Sm3AlC,True,0.0,5.01642188,5.01642188,5.01642188,126.23569060076314,0.0,-0.37786016400000005
mp-978493,SiSnO3,True,0.0,3.7122189999999997,3.7122189999999997,3.7122189999999997,51.15649342831219,0.7593999999999991,-2.125932824
mp-1206367,Ce3AlO,True,0.0,4.827101,4.827101,4.827101,112.47581730920871,0.0,-1.405291576999998
mp-10881,Ce3AlN,True,0.0,4.909242613333333,4.909242613333333,4.909242613333333,118.31600198870666,0.0,-0.8997610077499981
mp-10036,Ce3AlC,True,0.0,4.987306313333334,4.987306313333334,4.987306313333334,124.0503883998882,0.0,-0.347754207999997
mp-1016881,CdSnO3,True,0.0,4.057399,4.057399,4.057399,66.7948768517519,0.0,-1.4914406139999992
mp-1016879,CdSiO3,True,0.0,3.61992,3.61992,3.61992,47.43478301350349,0.6505999999999991,-2.161102249
mp-1016849,CdRuO3,True,0.0,3.9282230000000005,3.9282230000000005,3.9282230000000005,60.61615746211365,0.0,-1.0791255770000001
mp-1016875,CdRhO3,True,0.0,3.9515869999999995,3.9515869999999995,3.9515869999999995,61.7041883515396,0.0,-0.8457294909999991
mp-1016882,CdOsO3,True,0.0,3.942935,3.942935,3.942935,61.29977114342224,0.0,-1.034996828999999
mp-1017554,CdNi3N,True,0.0,3.8215355233333335,3.8215355233333335,3.8215355233333335,55.81021593644217,0.0,-0.10067525574999901
mp-1206343,CdNi3C,True,0.0,3.8661620000000005,3.8661620000000005,3.8661620000000005,57.78832993499819,0.0,0.024996232257578
mp-978503,SmBeO3,True,0.0,3.626649,3.626649,3.626649,47.69980187266984,0.0,-2.8876562590000012
mp-4982,SmBRh3,True,0.0,4.20876944,4.20876944,4.20876944,74.55304841797864,0.0,-0.734807114833334
mp-3428,SmBPd3,True,0.0,4.359961,4.359961,4.359961,82.87963189669462,0.0,-0.6446153498936661
mp-1018628,ScPt3C,True,0.0,4.247042,4.247042,4.247042,76.60544990860922,0.0,-0.17750874799999902
mp-978490,SiPdO3,True,0.0,3.598276,3.598276,3.598276,46.58900297437676,0.0,-1.563445494999999
mp-978489,SiPbO3,True,0.0,3.7481780000000007,3.7481780000000007,3.7481780000000007,52.65754671539656,1.184799999999999,-2.171974545
mp-1186997,SiMoO3,True,0.0,3.6455029999999993,3.6455029999999993,3.6455029999999993,48.44761250350565,0.0,-1.6748588009999992
mp-1016874,SiHgO3,True,0.0,3.6648270000000003,3.6648270000000003,3.6648270000000003,49.22213362928919,0.0,-1.720048743500001
mp-972827,SiBiO3,True,0.0,3.7986659999999994,3.7986659999999994,3.7986659999999994,54.81423140456445,0.0,-1.820326181
mp-972839,SiBO3,True,0.0,3.502656,3.502656,3.502656,42.97268208926432,0.0,-0.9995801968333331
mp-972822,SiBO3,True,0.0,3.336259,3.336259,3.336259,37.13464487955602,0.0,-0.9888648348333331
mp-1186999,SiAgO3,True,0.0,3.621317,3.621317,3.621317,47.48972232323486,0.0,-1.654687447333333
mp-20550,Ce3PbC,True,0.0,5.9861949999999995,5.9861949999999995,5.9861949999999995,214.51248777352032,0.0,1.7646497570000022
mp-20992,Ce3InC,True,0.0,5.045913360000001,5.045913360000001,5.045913360000001,128.47521933644194,0.0,-0.48984475000000005
mp-1069526,Ce3InC,True,0.0,5.839523,5.839523,5.839523,199.12790287259952,0.0,1.615078891999996
mp-19716,Sm3InN,True,0.0,4.94285722,4.94285722,4.94285722,120.76308437142629,0.0,-1.105729227750001
mp-20229,Sm3InC,True,0.0,5.710743,5.710743,5.710743,186.24209499590953,0.0,1.447761874000002
mp-10602,Sm3GaC,True,0.0,5.00216,5.00216,5.00216,125.16206999407768,0.0,-0.437840539000004
mp-1094052,Sm3AlN,True,0.0,4.903542056666667,4.903542056666667,4.903542056666667,117.90431881477106,0.0,-0.9686063877500001
mp-1018627,ScBPt3,True,0.0,4.262156,4.262156,4.262156,77.4262140925559,0.0,-0.636092646833331
mp-1017631,ScBPd3,True,0.0,4.234957,4.234957,4.234957,75.95336425446645,0.0,-0.55840895335715
mp-10113,ScBIr3,True,0.0,4.127100789999999,4.127100789999999,4.127100789999999,70.29674651362063,0.0,-0.659335980833334
mp-973156,ScAsO3,True,0.0,3.942009,3.942009,3.942009,61.25659245178591,0.0,-1.7497117375
mp-973123,ScPdO3,True,0.0,4.078754,4.078754,4.078754,67.8551067576614,0.0,-1.5405238919999982
mp-1018635,ScPd3C,True,0.0,4.21238,4.21238,4.21238,74.74508262885325,0.0,-0.190229454499996
mp-624739,ScIr3C,True,0.0,4.685136,4.685136,4.685136,102.84107466876378,0.0,2.919452122
mp-21319,Ce3TlC,True,0.0,5.862354,5.862354,5.862354,201.47265968457953,0.0,1.6767384765000082
mp-1245828,Ce3SnN,True,0.0,5.878218999999999,5.878218999999999,5.878218999999999,203.11279692854265,0.0,1.285230038000001
mp-1206922,Ce3SnN,True,0.0,4.97330387,4.97330387,4.97330387,123.00846147446708,0.0,-1.046695569999997
mp-20159,Ce3SnC,True,0.0,5.843293,5.843293,5.843293,199.51382324234328,0.0,1.618313874000001
mp-972978,ScVO3,True,0.0,3.786401,3.786401,3.786401,54.284997039030245,0.0,-2.525851478
mp-981376,ScSnO3,True,0.0,4.10743,4.10743,4.10743,69.29637433044239,0.0,-2.270678536999999
mp-1186993,ScSiO3,True,0.0,3.582486,3.582486,3.582486,45.978363101869,0.0,-2.7644089860000003
mp-7130,ScRu3C,True,0.0,4.06130662,4.06130662,4.06130662,66.98805020090266,0.0,-0.27626856800000105
mp-10712,ScRh3C,True,0.0,4.074734459999999,4.074734459999999,4.074734459999999,67.65469436399674,0.0,-0.49434824799999805
mp-19726,Sc3InB,True,0.0,4.688983,4.688983,4.688983,103.09461345029437,0.0,-0.47690068349998505
mp-8577,Sc3GaC,True,0.0,4.4743237,4.4743237,4.4743237,89.57404802447736,0.0,-0.770501871
mp-33365,CeGaO3,True,0.0,3.894384,3.894384,3.894384,59.063110754509616,0.0,-2.890761752499999
mp-22540,CeGaO3,True,0.0,4.413467,4.413467,4.413467,85.9685597555511,0.0,-2.239542462499999
mp-864636,CeFeO3,True,0.0,3.9335789999999995,3.9335789999999995,3.9335789999999995,60.86443995809564,0.0,-2.572784337
mp-977389,CeCuO3,True,0.0,3.832894999999999,3.832894999999999,3.832894999999999,56.30938271874027,0.0,-2.334185237
mp-20530,CeCrO3,True,0.0,3.9065500000000006,3.9065500000000006,3.9065500000000006,59.618378740261406,0.0,-2.970420415
mp-1183685,CeBeO3,True,0.0,3.6004469999999995,3.6004469999999995,3.6004469999999995,46.673381518026495,0.809399999999999,-3.178541142
mp-510376,CeBRh3,True,0.0,4.211496136666665,4.211496136666665,4.211496136666665,74.6980423023367,0.0,-0.799905212499999
mp-19948,CeBPd3,True,0.0,4.381105,4.381105,4.381105,84.09128433161773,0.0,-0.503660158833332
mp-5323,CeAlO3,True,0.0,3.762031,3.762031,3.762031,53.243562934737874,0.0,-3.603223498999999
mp-973068,ScCuO3,True,0.0,3.7288930000000007,3.7288930000000007,3.7288930000000007,51.84892597051777,0.0,-1.837501564
mp-1186980,ScCoO3,True,0.0,3.661868,3.661868,3.661868,49.10300326279377,0.785999999999999,-2.040111364
mp-10270,ScCo3C,True,0.0,3.7809382599999997,3.7809382599999997,3.7809382599999997,54.05038068634089,0.0,-0.146587398999999
mp-550008,ScBiO3,True,0.0,4.075793,4.075793,4.075793,67.7074343450527,0.6896999999999991,-2.448213882000001
mp-569875,ScBRh3,True,0.0,4.096670770000001,4.096670770000001,4.096670770000001,68.75324322460007,0.0,-0.7533863268333341
mp-6952,RbYbF3,True,0.0,4.467108485705882,4.467108485705882,4.467108485705882,89.14140992101083,6.5181000000000004,-3.239705441250001
mp-10133,Sc3BPb,True,0.0,4.67792943,4.67792943,4.67792943,102.36724082715106,0.0,-0.613486305500001
mp-4079,Sc3AlC,True,0.0,4.5094935,4.5094935,4.5094935,91.70294768893667,0.0,-0.6796490030000001
mp-973269,SbTeO3,True,0.0,4.17312,4.17312,4.17312,72.67459491171533,0.0,-0.853818866333332
mp-1186927,SbPdO3,True,0.0,3.993414999999999,3.993414999999999,3.993414999999999,63.68444006115969,0.0,-0.9117548109999991
mp-1186948,SbPbO3,True,0.0,4.216555999999999,4.216555999999999,4.216555999999999,74.96760173233196,0.0,-1.563771336999999
mp-1186920,SbAuO3,True,0.0,4.002397,4.002397,4.002397,64.11512496108023,0.0,-0.8976824790000001
mp-866095,CeNiO3,True,0.0,3.7854179999999995,3.7854179999999995,3.7854179999999995,54.24272869521403,0.0,-2.396649083
mp-1183706,CeMnO3,True,0.0,3.922932,3.922932,3.922932,60.371551975903536,0.0,-2.7920294005862063
mp-4230,Sc3TlC,True,0.0,4.54420828,4.54420828,4.54420828,93.83712343170306,0.0,-0.7447686709999991
mp-10140,Sc3TlB,True,0.0,4.690238,4.690238,4.690238,103.17741501239456,0.0,-0.418380284944441
mp-16297,Sc3SnC,True,0.0,4.53027743,4.53027743,4.53027743,92.97675738586938,0.0,-0.8832574550000001
mp-10139,Sc3SnB,True,0.0,4.65396808,4.65396808,4.65396808,100.80224414382151,0.0,-0.6759556734999991
mp-21035,Sc3PbC,True,0.0,4.554072189999999,4.554072189999999,4.554072189999999,94.44951496223655,0.0,-0.7973078749999981
mp-31055,Sc3InN,True,0.0,4.46445721,4.46445721,4.46445721,88.98278502058491,0.0,-1.190039605333334
mp-8578,Sc3InC,True,0.0,4.55062037,4.55062037,4.55062037,94.23490988333823,0.0,-0.798288960999997
mp-1076534,RbTaO3,True,0.0,4.071219999999999,4.071219999999999,4.071219999999999,67.47978870917983,2.002399999999999,-2.975669705966666
mp-975200,RbSrO3,True,0.0,4.852875,4.852875,4.852875,114.28712685110743,0.0,-1.3587918005000001
mp-1209047,RbSrCl3,True,0.0,5.696303999999999,5.696303999999999,5.696303999999999,184.83298442262458,4.6262,-2.5998177295
mp-1186893,RbSnO3,True,0.0,4.200595999999999,4.200595999999999,4.200595999999999,74.11954479593325,0.0,-1.6498113955
mp-22593,CeVO3,True,0.0,3.920275,3.920275,3.920275,60.2489661693708,0.0,-2.963973955
mp-754524,CeTiO3,True,0.0,3.9426919999999996,3.9426919999999996,3.9426919999999996,61.288438271041024,0.0,-3.497674579666666
mp-1183701,CeTaO3,True,0.0,4.054683999999999,4.054683999999999,4.054683999999999,66.66087960201665,0.0,-3.053413314466667
mp-1206127,CeRu3C,True,0.0,4.15944336,4.15944336,4.15944336,71.96240089917968,0.0,-0.24044842700000102
mp-22519,CeRh3C,True,0.0,4.228548,4.228548,4.228548,75.6090522789165,0.0,-0.38003273149999706
mp-1183759,CePuO3,True,0.0,4.365297,4.365297,4.365297,83.18430470359806,0.0,-2.987861632749997
mp-974337,RuPbO3,True,0.0,4.000143,4.000143,4.000143,64.0068642453909,0.0,-1.305190313
mp-974505,ReTeO3,True,0.0,4.005481,4.005481,4.005481,64.26344866098869,0.0,-0.9129641048333331
mp-974511,ReSbO3,True,0.0,3.990574,3.990574,3.990574,63.548617356216845,0.0,-1.1333699515
mp-974581,ReBiO3,True,0.0,4.023438999999999,4.023438999999999,4.023438999999999,65.13167751772731,0.0,-1.2107745975
mp-975159,RbZnO3,True,0.0,4.1640749999999995,4.1640749999999995,4.1640749999999995,72.20306426586791,0.0,-0.8810291984999991
mp-980537,RbYbO3,True,0.0,4.3933498608365715,4.3933498608365715,4.3933498608365715,84.79834338472178,0.0,-2.1327498265
mp-1206844,RbPaO3,True,0.0,4.38112501,4.38112501,4.38112501,84.09243655756401,3.000999999999999,-3.5306131085
mp-1040467,RbOsO3,True,0.0,3.974097,3.974097,3.974097,62.76469020489101,0.0,-1.5202451825
mp-1183397,CoBO3,True,0.0,3.3547419999999994,3.3547419999999994,3.3547419999999994,37.75525238159947,0.0,-0.9102977268333341
mp-1183686,CoAuO3,True,0.0,3.7989959999999994,3.7989959999999994,3.7989959999999994,54.828518210370326,0.0,-0.220394899
mp-1206915,CoAgF3,True,0.0,4.383699,4.383699,4.383699,84.24074112678909,0.0,-0.8400399793333331
mp-1206910,CoAgF3,True,0.0,4.044962,4.044962,4.044962,66.1825258716729,0.0,-1.628311681333333
mp-20679,Co3SnC,True,0.0,3.84709,3.84709,3.84709,56.93732235691284,0.0,0.030779726000000004
mp-975173,RbYO3,True,0.0,4.543095,4.543095,4.543095,93.76817320196758,0.0,-2.258841818500001
mp-975138,RbWO3,True,0.0,4.058288,4.058288,4.058288,66.83879192428014,0.0,-2.0409458445
mp-1076638,RbVO3,True,0.0,3.915187,3.915187,3.915187,60.014684858942445,0.24980000000000002,-2.0522239725
mp-556424,RbVF3,True,0.0,4.181654353333333,4.181654353333333,4.181654353333333,73.12138289460907,2.2325,-3.0345876665000002
mp-11775,RbUO3,True,0.0,4.328371596666666,4.328371596666666,4.328371596666666,81.09117912746237,0.45420000000000005,-3.304585120499998
mp-981550,RbTmO3,True,0.0,4.455645,4.455645,4.455645,88.45690592881743,0.0,-2.340062960500002
mp-975179,RbTlO3,True,0.0,4.465736,4.465736,4.465736,89.05927106621658,0.0,-0.787428181166668
mp-975190,RbTeO3,True,0.0,4.172344,4.172344,4.172344,72.63406049182207,0.0,-1.5728740938333332
mp-980058,RbTbO3,True,0.0,4.535038999999999,4.535038999999999,4.535038999999999,93.27023664401823,0.0,-2.271124349833333
mp-1183715,CoRhO3,True,0.0,3.89383,3.89383,3.89383,59.037908071244885,0.0,-0.44321795099999906
mp-1213745,CoNF3,True,0.0,3.767843000000001,3.767843000000001,3.767843000000001,53.49071393552447,0.0,-0.385923122
mp-1183772,CoMoO3,True,0.0,3.9836000000000005,3.9836000000000005,3.9836000000000005,63.216023109056025,0.0,-1.047837765
mp-975207,RbSmO3,True,0.0,4.576909,4.576909,4.576909,95.87752908908864,0.0,-2.198183543500001
mp-975206,RbSbO3,True,0.0,4.09054,4.09054,4.09054,68.44503210008946,0.0,-1.7992110385000002
mp-975208,RbRuO3,True,0.0,3.978586,3.978586,3.978586,62.97762089316109,0.0,-1.4384222645
mp-1186897,RbRhO3,True,0.0,4.042708,4.042708,4.042708,66.07194957741817,0.0,-1.108701878499999
mp-975216,RbReO3,True,0.0,3.9840619999999993,3.9840619999999993,3.9840619999999993,63.2380201895597,0.0,-1.973228657
mp-1186888,RbPuO3,True,0.0,4.282844066666667,4.282844066666667,4.282844066666667,78.55915213458808,0.0,-2.8854279862499963
mp-975236,RbPtO3,True,0.0,4.105072,4.105072,4.105072,69.17709751024132,0.0,-0.8889363144999991
mp-975255,RbPdO3,True,0.0,4.128309000000001,4.128309000000001,4.128309000000001,70.35850277043424,0.0,-0.774110666499999
mp-9060,RbPdF3,True,0.0,4.345685,4.345685,4.345685,82.06816613804428,0.0,-2.1177950265
mp-998173,RbPdCl3,True,0.0,4.94767089,4.94767089,4.94767089,121.11624849162804,0.0,-1.437161573499999
mp-22542,Tm3PbC,True,0.0,4.80484245,4.80484245,4.80484245,110.92704792778899,0.0,-0.558029175000005
mp-21043,RbPbF3,True,0.0,4.8617159999999995,4.8617159999999995,4.8617159999999995,114.91289263893748,3.044499999999999,-2.744894870499999
mp-1209191,RbPbCl3,True,0.0,5.723076000000002,5.723076000000002,5.723076000000002,187.45133578838073,2.1963,-1.8284056874999992
mp-558749,RbMnF3,True,0.0,4.23247214,4.23247214,4.23247214,75.81974583115912,2.943699999999999,-3.013482878086206
mp-1186884,RbMgO3,True,0.0,4.194742,4.194742,4.194742,73.81009484134074,0.0,-1.3923099295
mp-8402,RbMgF3,True,0.0,4.056934,4.056934,4.056934,66.77191431471459,6.9384000000000015,-3.507841387833333
mp-975291,RbLiO3,True,0.0,4.179392,4.179392,4.179392,73.00276697776181,0.0,-0.696537359166666
mp-975284,RbIrO3,True,0.0,4.009203,4.009203,4.009203,64.44276112195803,0.0,-1.2054180105
mp-975299,RbInO3,True,0.0,4.354854,4.354854,4.354854,82.5887320345404,0.0,-1.251412653833333
mp-1183696,CrCuO3,True,0.0,3.6987769999999984,3.6987769999999984,3.6987769999999984,50.60278799076256,0.0,-1.024200594999999
mp-10376,Cr3SnN,True,0.0,3.936886,3.936886,3.936886,61.01807711709627,0.0,-0.17382662541666302
mp-21244,Cr3RhN,True,0.0,3.819403,3.819403,3.819403,55.71683709583436,0.0,-0.31229571708333004
mp-10374,Cr3PtN,True,0.0,3.9133829233333337,3.9133829233333337,3.9133829233333337,59.931760689469144,0.0,-0.30180105374999705
mp-10373,Cr3PdN,True,0.0,3.839933,3.839933,3.839933,56.62014018611297,0.0,-0.258863485749992
mp-505628,Cr3IrN,True,0.0,3.8755924200000003,3.8755924200000003,3.89412981,58.49067323793154,0.0,-0.35756736375000103
mp-3000,Cr3GaN,True,0.0,3.829202,3.829202,3.829202,56.14677696976979,0.0,-0.303798610416666
mp-985545,CoTeO3,True,0.0,3.7793809999999994,3.7793809999999994,3.7793809999999994,53.98362278600854,0.0,-0.733957116333333
mp-1183692,CoSnO3,True,0.0,3.7426930000000005,3.7426930000000005,3.7426930000000005,52.42671121016411,0.0,-1.095084597999999
mp-1183681,CoSbO3,True,0.0,3.7647589999999993,3.7647589999999993,3.7647589999999993,53.35947409333586,0.29549999999999904,-1.068112115
mp-975322,RbFeO3,True,0.0,4.045439,4.045439,4.045439,66.20594225067894,0.0,-1.164507126499999
mp-554465,RbFeF3,True,0.0,4.220695,4.220695,4.220695,75.18858462943221,0.0,-2.4904115045
mp-1206518,RbFeCl3,True,0.0,4.93012219,4.93012219,4.93012219,119.83206666801536,0.0,-1.548168689499998
mp-1206801,RbEuCl3,True,0.0,5.655825,5.655825,5.655825,180.92054600923964,0.45419999999999905,-2.5478159505000013
mp-975361,RbErO3,True,0.0,4.494243,4.494243,4.494243,90.77570949035696,0.0,-2.3186068585
mp-1183695,CrTcO3,True,0.0,3.892617999999999,3.892617999999999,3.892617999999999,58.9827965166366,0.0,-1.4003265599999999
mp-1183719,CrRhO3,True,0.0,3.916935,3.916935,3.916935,60.0951043992927,0.0,-0.7593999869999991
mp-22364,CrPbO3,True,0.0,3.917057,3.917057,3.917057,60.100719885198174,0.0,-1.7380031889999992
mp-1183712,CrGeO3,True,0.0,3.7432920000000007,3.7432920000000007,3.7432920000000007,52.45188716737839,0.0,-1.547161351999999
mp-1206130,CrFe3N,True,0.0,3.80931,3.80931,3.80931,55.27629811449449,0.0,0.109825293
mp-975288,RbNpO3,True,0.0,4.305280342436794,4.305280342436794,4.305280342436794,79.80026042020519,0.0,-3.077545228250001
mp-975373,RbNiO3,True,0.0,4.051925,4.051925,4.051925,66.52489446797706,0.0,-0.650802962499999
mp-1075911,RbNbO3,True,0.0,4.098856,4.098856,4.098856,68.86332417595558,1.3563,-2.756314476499999
mp-975274,RbNaO3,True,0.0,4.527717,4.527717,4.527717,92.81920017629031,0.0,-0.5021710987758621
mp-975292,RbMoO3,True,0.0,4.052919,4.052919,4.052919,66.57386524218768,0.0,-1.9528968765
mp-975346,RbMnO3,True,0.0,4.039265,4.039265,4.039265,65.90328141912995,0.0,-1.378088158086207
mp-3654,RbCaF3,True,0.0,4.454288139999999,4.454288139999999,4.454288139999999,88.37611823763208,6.3971,-3.717050224499998