material_id,formula_pretty,is_fit,rms_A,a_A,b_A,c_A,volume_A3,band_gap,formation_energy_per_atom
mp-1016831,HgIrO3,True,0.0,3.966927,3.966927,3.966927,62.425585703929045,0.0,-0.6086466195000011
mp-1017447,HgGeO3,True,0.0,3.8203099999999997,3.8203099999999997,3.8203099999999997,55.756540033335774,0.0,-1.172762238500001
mp-613402,SrZrO3,True,0.0,4.405373999999999,4.405373999999999,4.405373999999999,85.49650328956362,0.0,-1.144418149
mp-3323,SrZrO3,True,0.0,4.197593999999999,4.197593999999999,4.197593999999999,73.9607474054056,3.214399999999999,-3.606749917
mp-1186757,SrZnO3,True,0.0,3.9800649999999984,3.9800649999999984,3.9800649999999984,63.047880928446695,0.0,-1.871074826999999
mp-1186756,SrYbO3,True,0.0,4.259429195548084,4.259429195548084,4.259429195548084,77.27770397114975,0.0,-2.9767352482500034
mp-1186764,SrWO3,True,0.0,4.101269,4.101269,4.101269,68.98501547948386,0.0,-2.455699439000001
mp-18717,SrVO3,True,0.0,3.900891,3.900891,3.900891,59.35966561911505,0.0,-2.878867755
mp-1183289,BaScO3,True,0.0,4.219697,4.219697,4.219697,75.13526132667413,0.0,-3.207111031999999
mp-1017591,BaRuO3,True,0.0,4.063668,4.063668,4.063668,67.1049654561984,0.0,-2.121449641
mp-1016850,BaRhO3,True,0.0,4.094455,4.094455,4.094455,68.64174366791524,0.0,-1.914429825
mp-1183298,BaReO3,True,0.0,4.064731999999999,4.064731999999999,4.064731999999999,67.15769002397441,0.0,-2.3711194475
mp-7143,BaPuO3,True,0.0,4.3811021,4.3811021,4.3811021,84.09111734322336,0.0,-3.319721610749997
mp-1183290,BaPtO3,True,0.0,4.138181,4.138181,4.138181,70.864454291593,0.0,-1.712383318999999
mp-4783,BaPrO3,True,0.0,4.590467999999998,4.590467999999998,4.590467999999998,96.73216162846285,0.0,-2.891142755333334
mp-1178510,BaPdO3,True,0.0,4.128267,4.128267,4.128267,70.35635538244601,0.0,-1.685291061
mp-561598,BaPbO3,True,0.0,4.670138,4.670138,4.670138,101.85659215140905,0.0,-1.013678092999999
mp-21280,BaPbO3,True,0.0,4.362221,4.362221,4.362221,83.00858149731611,0.0,-2.081831488999999
mp-8557,BaPaO3,True,0.0,4.493835383333334,4.493835383333334,4.493835383333334,90.75101233696093,0.0,-3.563953094999999
mp-781625,BaOsO3,True,0.0,4.06423,4.06423,4.06423,67.13281089520898,0.0,-2.039047280999999
mp-8558,BaNpO3,True,0.0,4.407701353333334,4.407701353333334,4.407701353333334,85.63207796150355,0.0,-3.376933662750002
mp-1120765,BaNiO3,True,0.0,4.030684,4.030684,4.030684,65.48415898349904,0.0,-1.695750199
mp-755877,BaNdO3,True,0.0,4.556776,4.556776,4.556776,94.61784245961687,0.0,-2.9319263804999993
mp-3020,BaNbO3,True,0.0,4.13357283,4.13357283,4.13357283,70.62797941745364,0.0,-3.178754561000029
mp-1187192,SrSbO3,True,0.0,4.208672,4.208672,4.208672,74.54787045732388,0.0,-2.375606296999999
mp-4346,SrRuO3,True,0.0,3.987275,3.987275,3.987275,63.39114104699642,0.0,-2.149272639
mp-1017441,SrRhO3,True,0.0,4.004484,4.004484,4.004484,64.21547336522843,0.0,-1.928895577
mp-1187226,SrReO3,True,0.0,3.9969109999999994,3.9969109999999994,3.9969109999999994,63.85184247357698,0.0,-2.3999262475
mp-1207172,SrPuO3,True,0.0,4.36308,4.36308,4.36308,83.05762881533012,0.0,-3.235445856749998
mp-1187202,SrPtO3,True,0.0,4.06243,4.06243,4.06243,67.0436533800309,0.0,-1.700283456999999
mp-1017465,BaVO3,True,0.0,3.982485,3.982485,3.982485,63.16295592953194,0.0,-2.790472743000001
mp-1183394,BaTmO3,True,0.0,4.374127,4.374127,4.374127,83.69011508040276,0.0,-3.193704981000002
mp-1183393,BaTlO3,True,0.0,4.350242,4.350242,4.350242,82.32661349927436,0.0,-1.698419363666668
mp-504715,BaTiO3,True,0.0,4.649145,4.649145,4.649145,100.48917348467371,0.0,-0.414785889666666
mp-2998,BaTiO3,True,0.0,4.007681635668281,4.007681635668281,4.007681635668281,64.36942705567031,1.666299999999999,-3.477498397666666
mp-8037,BaThO3,True,0.0,4.600115,4.600115,4.600115,97.34330038250651,3.2033,-3.691689850999999
mp-2929,BaTbO3,True,0.0,4.451637,4.451637,4.451637,88.21841085680292,0.0,-3.094681416333332
mp-754678,BaTaO3,True,0.0,4.130846,4.130846,4.130846,70.48829628052674,0.0,-3.269091094466667
mp-3163,BaSnO3,True,0.0,4.14346542,4.14346542,4.14346542,71.13628093297905,0.372399999999999,-2.587468271999999
mp-1016821,BaSiO3,True,0.0,3.8369369999999994,3.8369369999999994,3.8369369999999994,56.487714733145886,0.9473,-2.842744940999999
mp-24419,SrLiH3,True,0.0,4.630791,4.630791,4.630791,99.30372545490403,1.8195000000000001,-0.126509745583332
mp-1016848,SrIrO3,True,0.0,3.9980479999999994,3.9980479999999994,3.9980479999999994,63.90634971621026,0.0,-1.8921271650000002
mp-1183418,BeCdO3,True,0.0,3.6151590000000002,3.6151590000000002,3.6151590000000002,47.247867192501474,0.0,-1.263394712
mp-1183403,BeBiO3,True,0.0,3.6737989999999994,3.6737989999999994,3.6737989999999994,49.584527008863674,0.0,-1.631539188
mp-1183422,BeBO3,True,0.0,3.264797,3.264797,3.264797,34.79914295160879,0.0,-1.000599027833332
mp-1183414,BeAuO3,True,0.0,3.570985,3.570985,3.570985,45.53696457156541,0.0,-0.6280899599999991
mp-1183417,BeAgO3,True,0.0,3.568391,3.568391,3.568391,45.43780109045,0.0,-0.777852184333333
mp-3834,BaZrO3,True,0.0,4.21238715,4.21238715,4.21238715,74.74546324141521,3.0377,-3.639168969000001
mp-1183405,BaZnO3,True,0.0,4.114959999999999,4.114959999999999,4.114959999999999,69.67818890775189,0.0,-1.844181115
mp-1183406,BaYbO3,True,0.0,4.329520951224171,4.329520951224171,4.329520951224171,81.15579506815625,0.0,-3.051083985250002
mp-1183395,BaWO3,True,0.0,4.164356000000001,4.164356000000001,4.164356000000001,72.21768246815927,0.0,-2.463760293
mp-12631,SrTcO3,True,0.0,3.962392506666667,3.962392506666667,3.962392506666667,62.21175901349417,0.0,-2.3778703065
mp-1186755,SrTaO3,True,0.0,4.066878,4.066878,4.066878,67.26411512562386,0.0,-3.278887796466667
mp-546973,SrSnO3,True,0.0,4.114859,4.114859,4.114859,69.67305836625314,0.9698000000000001,-2.589623864000001
mp-1017439,SrSiO3,True,0.0,3.698902,3.698902,3.698902,50.607918520880645,2.383099999999999,-3.116950543
mp-1187191,SrScO3,True,0.0,4.139925999999999,4.139925999999999,4.139925999999999,70.95413907681146,0.0,-3.1865535720000002
mp-1183499,BePbO3,True,0.0,3.6525309999999984,3.6525309999999984,3.6525309999999984,48.72835290398637,0.0,-1.392075337999999
mp-1183431,BeOsO3,True,0.0,3.437481,3.437481,3.437481,40.61822295294155,0.0,-0.746181197999999
mp-1183436,BeInO3,True,0.0,3.556543,3.556543,3.556543,44.986705688153236,0.0,-1.5278014073333321
mp-1183413,BeHgO3,True,0.0,3.656609,3.656609,3.656609,48.891748779920675,0.0,-0.8920672985000011
mp-1183415,BeGeO3,True,0.0,3.504888,3.504888,3.504888,43.05488498849875,0.0,-1.188172349
mp-984722,BeGaO3,True,0.0,3.4625229999999996,3.4625229999999996,3.4625229999999996,41.512415130651235,0.0,-1.2922788015
mp-1183426,BeCuO3,True,0.0,3.461833,3.461833,3.461833,41.487602710206495,0.0,-0.822260176
mp-1187190,SrPdO3,True,0.0,4.039472,4.039472,4.039472,65.91341396431488,0.0,-1.677081801
mp-867195,SrOsO3,True,0.0,3.992358,3.992358,3.992358,63.63388435567394,0.0,-2.066363066999999
mp-762506,SrNiO3,True,0.0,3.898543607538851,3.898543607538851,3.898543607538851,59.25256962553295,0.0,-1.7639698830000001
mp-1101333,SrNdO3,True,0.0,4.496464,4.496464,4.496464,90.91035675028431,0.0,-2.8092064345
mp-7006,SrNbO3,True,0.0,4.069689756666666,4.069689756666666,4.069689756666666,67.4037267258169,0.0,-3.174769312999998
mp-18747,SrMoO3,True,0.0,4.080579,4.080579,4.080579,67.94623090034395,0.0,-2.512841190999999
mp-1017466,SrMnO3,True,0.0,3.842734001834013,3.8611987501173535,3.9030910016987814,57.91234584948377,0.0,-2.450037027586207
mp-1187182,SrMgO3,True,0.0,4.02557,4.02557,4.02557,65.23522261710269,0.0,-2.317325252
mp-1187183,SrLiO3,True,0.0,3.909437,3.909437,3.909437,59.75065311696792,0.0,-1.694797613666666
mp-1207079,SrH3Pd,True,0.0,3.82819304,3.82819304,3.82819304,56.10240616351812,0.0,-0.515080370749999
mp-1016999,SrGeO3,True,0.0,3.85681,3.85681,3.85681,57.36998463477624,0.0,-2.593071166
mp-510624,SrFeO3,True,0.0,3.828813793333333,3.828813793333333,3.828813793333333,56.129702124833976,0.0,-2.222982896999998
mp-1100775,SrEuO3,True,0.0,4.383632,4.383632,4.383632,84.23687860562264,0.0,-2.6788943740000013
mp-1187147,SrErO3,True,0.0,4.334821,4.334821,4.334821,81.45420436686246,0.0,-3.0835821230000002
mp-1187145,SrDyO3,True,0.0,4.372935,4.372935,4.372935,83.6217141622725,0.0,-3.026185685333332
mp-1076711,SrCuO3,True,0.0,3.838401003333333,3.838401003333333,3.838401003333333,56.552398954392395,0.0,-1.740167172999999
mp-1183469,BiPtO3,True,0.0,4.070707,4.070707,4.070707,67.45428325640967,0.0,-0.7547056550000001
mp-1183479,BiMoO3,True,0.0,4.116636,4.116636,4.116636,69.76336218902185,0.0,-1.406245923000001
mp-984552,BeZnO3,True,0.0,3.503176,3.503176,3.503176,42.991823945284224,0.0,-1.192388182
mp-1183449,BeVO3,True,0.0,3.4289469999999995,3.4289469999999995,3.4289469999999995,40.31645308937701,0.0,-1.710029862
mp-1183445,BeSiO3,True,0.0,3.477388,3.477388,3.477388,42.049366115138874,0.269099999999999,-1.9597881819999992
mp-1183443,BeSbO3,True,0.0,3.577371,3.577371,3.577371,45.78170326605363,0.0,-1.525668535999999
mp-1183476,BeReO3,True,0.0,3.454411,3.454411,3.454411,41.22133224745682,0.0,-1.008401834500001
mp-1183451,BePtO3,True,0.0,3.502685,3.502685,3.502685,42.973749466219274,0.0,-0.7158180159999991
mp-1183447,BePdO3,True,0.0,3.4984510000000006,3.4984510000000006,3.4984510000000006,42.81809943999385,0.0,-0.8500714260000001
mp-505766,SrCoO3,True,0.0,3.885069333335092,3.885069333335092,3.885069333335092,58.64031857190685,0.0,-1.9179654
mp-978842,SrCaO3,True,0.0,4.376349,4.376349,4.376349,83.81772037171805,0.0,-2.177782510999999
mp-1187143,SrBeO3,True,0.0,3.7338769999999997,3.7338769999999997,3.7338769999999997,52.05710619650918,0.0,-2.186857816
mp-1187146,SrAuO3,True,0.0,4.135839999999999,4.135839999999999,4.135839999999999,70.74425665556065,0.0,-1.420715157
mp-978851,SrAsO3,True,0.0,3.974879,3.974879,3.974879,62.80174892271716,0.0,-2.2736955725
mp-978862,SrAlO3,True,0.0,3.8357609999999993,3.8357609999999993,3.8357609999999993,56.435791132902786,0.0,-3.031678721000001
mp-1068011,SrAlH3,True,0.0,4.585462,4.585462,4.585462,96.41604136487081,0.07439999999999901,0.23364325532142802
mp-9040,Ca3AuN,True,0.0,4.844971,4.844971,4.844971,113.72960889704892,0.0,-0.860311607749997
mp-1096856,Ca3AsP,True,0.0,5.424854,5.424854,5.424854,159.64825035816477,0.10890000000000001,-0.9044160086785721
mp-1013642,Ca3AsP,True,0.0,5.333899,5.333899,5.333899,151.75197904576734,0.192699999999999,-1.126981886678571
mp-7223,Ca3AsN,True,0.0,4.750899709999999,4.750899709999999,4.750899709999999,107.23278565641591,0.7169999999999991,-1.284297310249999
mp-1013543,Ca3AsN,True,0.0,5.411429999999999,5.411429999999999,5.411429999999999,158.46601434065116,0.0,0.039797012750001005
mp-972021,SrInO3,True,0.0,4.214427,4.214427,4.214427,74.85410238575706,0.0,-2.1154600563333332
mp-971996,SrHoO3,True,0.0,4.355382999999999,4.355382999999999,4.355382999999999,82.6188327542729,0.0,-3.054025573999998
mp-971975,SrHgO3,True,0.0,4.236171,4.236171,4.236171,76.01870174364761,0.0,-1.3590512335000011
mp-4551,SrHfO3,True,0.0,4.141206,4.141206,4.141206,71.01997313864919,3.7226,-3.779407364999999
mp-979294,SrAgO3,True,0.0,4.110248,4.110248,4.110248,69.43909948075958,0.0,-1.386157267333332
mp-7961,Sr3SnO,True,0.0,5.151847200000001,5.151847200000001,5.151847200000001,136.7379048099871,0.0,-1.6425350619999999
mp-1013588,Sr3SbP,True,0.0,5.739999999999999,5.739999999999999,5.739999999999999,189.11922399999995,0.34189999999999904,-0.9584227269285711
mp-1013535,Sr3SbP,True,0.0,6.100651,6.100651,6.100651,227.0536788858342,0.0,-0.32151753692857105
mp-7752,Sr3SbN,True,0.0,5.194965139999999,5.194965139999999,5.194965139999999,140.19996748628458,0.25769999999999904,-1.027945077000001
mp-9721,Ca3GeO,True,0.0,4.714830279999999,4.714830279999999,4.714830279999999,104.80890703191908,0.0,-1.7046520699999999
mp-11822,Ca3GeN,True,0.0,4.804183126666666,4.804183126666666,4.804183126666666,110.8813897675,0.0,-0.8614104477499991
mp-1013733,Ca3BiSb,True,0.0,5.81,5.81,5.81,196.12294099999997,0.0,-0.645725929999999
mp-1013704,Ca3BiSb,True,0.0,5.86,5.86,5.86,201.23005600000005,0.0,-0.48856588200000006
mp-1013702,Ca3BiP,True,0.0,5.82,5.82,5.82,197.13736800000004,0.0,-0.316380922402939
mp-1013558,Ca3BiP,True,0.0,5.417466239999999,5.417466239999999,5.417466239999999,158.99689413016142,0.07590000000000001,-1.121780490595242
mp-31149,Ca3BiN,True,0.0,4.90035347,4.90035347,4.90035347,117.67446228077745,0.3687,-1.204245116750002
mp-1013542,Ca3BiN,True,0.0,5.849999999999999,5.849999999999999,5.849999999999999,200.20162499999986,0.0,0.5483129252499961
mp-1013703,Ca3BiAs,True,0.0,5.839999999999999,5.839999999999999,5.839999999999999,199.1767039999999,0.0,-0.469057760416669
mp-1013545,Ca3BiAs,True,0.0,5.5299999999999985,5.5299999999999985,5.5299999999999985,169.11237699999987,0.0,-1.090001270416667
mp-20029,SrCrO3,True,0.0,3.8932039999999994,3.8932039999999994,3.8932039999999994,59.00943857782973,0.0,-2.5717556850000003
mp-1013534,Sr3SbN,True,0.0,6.221556,6.221556,6.221556,240.822490633365,0.0,0.45508603700000005
mp-1013561,Sr3SbAs,True,0.0,5.848444,5.848444,5.848444,200.04191685716947,0.127999999999999,-0.9112094495
mp-1013541,Sr3SbAs,True,0.0,6.11,6.11,6.11,228.09913100000003,0.0,-0.475638621499999
mp-19944,Sr3PbO,True,0.0,5.17250966,5.17250966,5.17250966,138.38975205740917,0.0,-1.586021312999998
mp-1013554,Sr3PN,True,0.0,5.05920313,5.05920313,5.05920313,129.49301741662526,0.519699999999999,-0.95271940134524
mp-1013536,Sr3PN,True,0.0,5.669999999999999,5.669999999999999,5.669999999999999,182.28426299999992,0.0,0.072935280017262
mp-1096764,Ca3SbP,True,0.0,5.736281000000001,5.736281000000001,5.736281000000001,188.75186574451118,0.0,-0.31697888092857
mp-1013550,Ca3SbP,True,0.0,5.382443769999999,5.382443769999999,5.382443769999999,155.93316877202884,0.6583,-1.02137064092857
mp-31157,Ca3SbN,True,0.0,5.757405000000001,5.757405000000001,5.757405000000001,190.84480473047734,0.0,0.48047251100000005
mp-1013548,Ca3SbN,True,0.0,4.86018189,4.86018189,4.86018189,114.8041449895023,0.40750000000000003,-1.202770444999998
mp-1013738,Ca3SbAs,True,0.0,5.75,5.75,5.75,190.109375,0.0,-0.46732404549999906
mp-1013544,Ca3SbAs,True,0.0,5.490000000000001,5.490000000000001,5.490000000000001,165.4691490000001,0.400599999999999,-0.9471447835000001
mp-20273,Ca3PbO,True,0.0,4.84593119,4.84593119,4.84593119,113.79724006134056,0.0,-1.689312636999997
mp-21128,Ca3PbN,True,0.0,5.953986999999999,5.953986999999999,5.953986999999999,211.06860811249456,0.0,0.748858181
mp-11824,Ca3PN,True,0.0,4.71165792,4.71165792,4.71165792,104.59748823288615,0.8055999999999991,-1.205423485345237
mp-1013540,Ca3PN,True,0.0,5.29,5.29,5.29,148.035889,0.0,-0.045294933345238
mp-1013585,Sr3BiSb,True,0.0,6.163906,6.163906,6.163906,234.18982454672246,0.0,-0.6675142980000001
mp-1013643,Sr3BiP,True,0.0,5.776749,5.776749,5.776749,192.7749031069175,0.0,-1.095449884170227
mp-1013530,Sr3BiP,True,0.0,6.183844999999999,6.183844999999999,6.183844999999999,236.46985548666797,0.0,-0.331061042170227
mp-570008,Sr3BiN,True,0.0,5.23493993,5.23493993,5.23493993,143.46141423607256,0.256899999999999,-1.04296567675
mp-1013531,Sr3BiN,True,0.0,6.23,6.23,6.23,241.80436700000004,0.0,0.5227135432500001
mp-1013705,Sr3BiAs,True,0.0,6.196805,6.196805,6.196805,237.9597424366504,0.0,-0.490843560166666
mp-1013564,Sr3BiAs,True,0.0,5.88,5.88,5.88,203.29747199999997,0.0,-1.060178490166669
mp-1013553,Sr3AsP,True,0.0,5.7,5.7,5.7,185.193,0.0,-0.962671677136904
mp-1013532,Sr3AsP,True,0.0,5.79,5.79,5.79,194.104539,0.0,-0.7607700471369071
mp-1099934,CaCoO3,True,0.0,3.7634899999999996,3.7634899999999996,3.7634899999999996,53.30553410603653,0.0,-1.881145528999999
mp-984632,CaBeO3,True,0.0,3.614908,3.614908,3.614908,47.238026636691295,0.0,-2.23146697
mp-1206909,CaBPd3,True,0.0,4.2784219766666665,4.2784219766666665,4.2784219766666665,78.31606338180657,0.0,-0.5539117944999981
mp-984628,CaBO3,True,0.0,3.47968,3.47968,3.47968,42.13256708502324,0.0,-2.020940406833332
mp-10554,Ca3TlN,True,0.0,4.953824,4.953824,4.953824,121.56868488711186,0.0,-0.7596014077500001
mp-29241,Ca3SnO,True,0.0,4.82648645,4.82648645,4.82648645,112.43286406637701,0.0,-1.76736699
mp-637179,Ca3SnN,True,0.0,5.896994,5.896994,5.896994,205.0652433306749,0.0,0.6716416300000001
mp-1013555,Sr3AsN,True,0.0,5.09566939,5.09566939,5.09566939,132.31336935948244,0.4218,-1.052059000250003
mp-1013537,Sr3AsN,True,0.0,5.8,5.8,5.8,195.112,0.0,0.11122313774999901
mp-20446,SnPt3C,True,0.0,4.298023,4.298023,4.298023,79.39738622229692,0.0,0.323189446500009
mp-1018636,SnPd3C,True,0.0,4.252860999999999,4.252860999999999,4.252860999999999,76.92075982376092,0.0,0.13907463050000501
mp-978952,SnPbO3,True,0.0,4.127671,4.127671,4.127671,70.32588763341295,1.0389,-1.760990871999999
mp-1183562,CaLaO3,True,0.0,4.504726,4.504726,4.504726,91.41240612908155,0.0,-2.667460735999999
mp-1016872,CaIrO3,True,0.0,3.9534749999999996,3.9534749999999996,3.9534749999999996,61.79267420061903,0.0,-1.795396682999999
mp-1183543,CaInO3,True,0.0,4.162758999999999,4.162758999999999,4.162758999999999,72.13462947097258,0.0,-1.978930112333332
mp-1183539,CaHoO3,True,0.0,4.311328,4.311328,4.311328,80.13702098788315,0.0,-2.895609851999998
mp-1183570,CaHgO3,True,0.0,4.190761,4.190761,4.190761,73.60014685629169,0.0,-1.212001969500001
mp-1016873,CaHfO3,True,0.0,4.06701021,4.06701021,4.06701021,67.27067539944997,3.6612,-3.660851149000001
mp-1207169,CaH3Pd,True,0.0,3.70671619,3.70671619,3.70671619,50.92933491625866,0.0,-0.5692839752499991
mp-1016884,CaGeO3,True,0.0,3.7832369999999984,3.7832369999999984,3.7832369999999984,54.14902550875422,0.5017,-2.579209943999999
mp-1001571,CaFeO3,True,0.0,3.8366100000000003,3.8366100000000003,3.8366100000000003,56.4732735980338,0.0,-2.176371779
mp-1099873,CaCuO3,True,0.0,3.8036359999999996,3.8036359999999996,3.8036359999999996,55.02966228172411,0.0,-1.700447860999999
mp-1013706,Sr3BiSb,True,0.0,6.216866999999998,6.216866999999998,6.216866999999998,240.27839885840393,0.0,-0.519670038
mp-981250,SmPuO3,True,0.0,4.353633,4.353633,4.353633,82.5192836183423,0.0,-2.849570497749998
mp-1016837,SnHgO3,True,0.0,4.081489,4.081489,4.081489,67.99169860966235,0.0,-1.179672492500001
mp-1187065,SnGeO3,True,0.0,3.8642349999999994,3.8642349999999994,3.8642349999999994,57.70196318386115,0.0,-1.632876662999999
mp-1068389,SnCCl3,True,0.0,5.269071999999999,5.269071999999999,5.269071999999999,146.28587686091976,0.0,0.8221460997500031
mp-972442,SnBO3,True,0.0,3.492841,3.492841,3.492841,42.61244452154257,0.0,-1.235793849833333
mp-7986,CaSnO3,True,0.0,4.066424,4.066424,4.066424,67.24159084581586,1.390499999999999,-2.484464593999998
mp-546910,CaSnO3,True,0.0,4.349933,4.349933,4.349933,82.30907163608116,0.0,-1.244784597999999
mp-5893,CaSiO3,True,0.0,3.6079640000000004,3.6079640000000004,3.6079640000000004,46.96632581831587,3.4579,-3.203830397
mp-1183534,CaScO3,True,0.0,4.0847489999999995,4.0847489999999995,4.0847489999999995,68.15474941663642,0.0,-3.070074366
mp-1016835,CaRuO3,True,0.0,3.929544,3.929544,3.929544,60.67733082827061,0.0,-2.061455217
mp-1016833,CaRhO3,True,0.0,3.954209,3.954209,3.954209,61.82709777288515,0.0,-1.835723820999999
mp-12572,CaPd3C,True,0.0,4.281632,4.281632,4.281632,78.49247308911087,0.0,-0.201407233499998
mp-1016900,CaOsO3,True,0.0,3.952163,3.952163,3.952163,61.7311750736624,0.0,-1.976540853
mp-1207078,CaNiH3,True,0.0,3.50426521,3.50426521,3.50426521,43.03193756126438,0.0,-0.5611345147500001
mp-1017467,CaMnO3,True,0.0,3.8017160000000003,3.8017160000000003,3.8017160000000003,54.946370694131446,0.0,-2.418963380586207
mp-1183532,CaMgO3,True,0.0,3.945178,3.945178,3.945178,61.40444465533577,0.0,-2.228589692
mp-1076706,SmCuO3,True,0.0,3.8090849999999996,3.8090849999999996,3.8090849999999996,55.26650387421567,0.0,-2.287715097999999
mp-19257,SmCrO3,True,0.0,3.8775729999999995,3.8775729999999995,3.8775729999999995,58.30152946273371,1.7362000000000002,-2.973790204
mp-22549,SmCoO3,True,0.0,3.756973,3.756973,3.756973,53.02909578224753,0.8039000000000001,-2.436943343999999
mp-542112,CaZrO3,True,0.0,4.160071,4.160071,4.160071,71.99498215571205,3.2122,-3.478281985
mp-1183540,CaZnO3,True,0.0,3.8766249999999984,3.8766249999999984,3.8766249999999984,58.258778748431574,0.0,-1.8021280789999992