material_id,formula_pretty,is_fit,rms_A,a_A,b_A,c_A,volume_A3,band_gap,formation_energy_per_atom
mp-21888,Tm3SnC,True,0.0,5.523951,5.523951,5.523951,168.5580322211173,0.0,1.511119863999995
mp-19847,Tm3InN,True,0.0,4.70132412,4.70132412,4.70132412,103.91077415616378,0.0,-1.224040253750001
mp-21292,Tm3InC,True,0.0,5.506619,5.506619,5.506619,166.97639742414253,0.0,1.46514898803
mp-10351,Tm3GaC,True,0.0,5.225463,5.225463,5.225463,142.68368955345835,0.0,1.044850077999981
mp-1018641,Tm3AlN,True,0.0,4.6573477400000005,4.6573477400000005,4.6573477400000005,101.02200807164859,0.0,-1.124935117750001
mp-574239,Tm3AlC,True,0.0,5.301577,5.301577,5.301577,149.00993333609298,0.0,1.332148068499981
mp-20978,Ho3TlC,True,0.0,5.579004999999999,5.579004999999999,5.579004999999999,173.6481864180333,0.0,1.634102379333335
mp-1183168,AcVO3,True,0.0,3.967895373333333,3.967895373333333,3.967895373333333,62.47131331417571,0.0,-3.141069095500003
mp-865927,AcTiO3,True,0.0,3.995820010000001,3.995820010000001,3.995820010000001,63.79957007476274,0.0,-3.60763573816667
mp-1183150,AcSiO3,True,0.0,3.970175,3.970175,3.970175,62.5790478372491,0.0,-2.8682463835
mp-1183152,AcScO3,True,0.0,4.125045999999999,4.125045999999999,4.125045999999999,70.19180130743555,3.3847,-3.8290604304999993
mp-1183145,AcPdO3,True,0.0,4.0552069133333335,4.0552069133333335,4.0552069133333335,66.68667373916907,0.0,-2.236955405499998
mp-1183139,AcNiO3,True,0.0,3.8788293533333333,3.8788293533333333,3.8788293533333333,58.35821780047424,0.0,-2.455476575499998
mp-864911,AcMnO3,True,0.0,3.963021679999999,3.963021679999999,3.963021679999999,62.24139882978782,0.0,-2.973630023086206
mp-1183142,AcMgO3,True,0.0,4.016262,4.016262,4.016262,64.78375373225691,0.0,-3.0018453265
mp-554973,TlCuF3,True,0.0,4.090516689999999,4.090516689999999,4.07632852,68.20646090480044,0.0,-1.861619619999999
mp-1016819,HfZnO3,True,0.0,4.076656,4.076656,4.076656,67.7504521495989,0.0,-2.441217454999999
mp-998147,TlCuCl3,True,0.0,4.820136566666667,4.820136566666667,4.820136566666667,111.98968658396814,0.0,-1.051494141166669
mp-998160,TlCoF3,True,0.0,4.200322,4.200322,4.200322,74.10504154645177,0.0,-1.993014821666668
mp-1207995,TlCdN3,True,0.0,4.47241,4.47241,4.47241,89.45916280761851,0.0,1.8919076743333392
mp-1187494,TlBO3,True,0.0,3.53491,3.53491,3.53491,44.17078148014977,0.0,-0.8391615275000011
mp-1187621,TlWO3,True,0.0,4.077202,4.077202,4.077202,67.77767792105595,0.0,-1.642345367666667
mp-1187623,TlTcO3,True,0.0,3.990746,3.990746,3.990746,63.556834845711684,0.0,-1.501989770666668
mp-1187529,TlSiO3,True,0.0,3.7048019999999995,3.7048019999999995,3.7048019999999995,50.85047420789467,0.0,-1.860338147666668
mp-7114,Ho3SnC,True,0.0,5.57875,5.57875,5.57875,173.6243766542969,0.0,1.481500367000003
mp-998761,TlNiF3,True,0.0,4.087357523333332,4.087357523333332,4.087357523333332,68.28540381728496,3.4347,-2.109648550000003
mp-546200,TlIO3,True,0.0,4.249667,4.249667,4.249667,76.7475819762978,0.0,-0.7248944806666681
mp-1187530,TlHgO3,True,0.0,4.26104,4.26104,4.26104,77.36541033597288,0.0,-0.19954186216666903
mp-985292,AgBO3,True,0.0,3.4832869999999994,3.4832869999999994,3.4832869999999994,42.2637254875263,0.0,-0.546613989166666
mp-558189,Ag3SI,True,0.0,5.009586,5.009586,5.009586,125.72032925181091,0.6242999999999991,-0.21088855749999802
mp-22556,Tm3TlC,True,0.0,5.5323850000000006,5.5323850000000006,5.5323850000000006,169.3312777207192,0.0,1.48487064841334
mp-31057,Ho3InN,True,0.0,4.76233324,4.76233324,4.76233324,108.00885060902125,0.0,-1.067085231333329
mp-1206985,TiFe3N,True,0.0,3.738023,3.738023,3.738023,52.23070739036822,0.0,-0.33961129966666503
mp-1187469,TiCuO3,True,0.0,3.8507730000000002,3.8507730000000002,3.8507730000000002,57.10100527942185,0.0,-1.936134507666667
mp-1016927,TiZnO3,True,0.0,3.843088,3.843088,3.843088,56.759817119617246,0.0,-2.284075239666666
mp-1187488,TiTeO3,True,0.0,3.96247,3.96247,3.96247,62.21540914976123,0.0,-1.954392125
mp-1018639,TiSnO3,True,0.0,3.9507309999999993,3.9507309999999993,3.9507309999999993,61.664097615068435,1.0452,-2.5965887846666673
mp-1016840,HgOsO3,True,0.0,3.954635,3.954635,3.954635,61.847082438291004,0.0,-0.8511533195000011
mp-23080,AlBiO3,True,0.0,3.787194,3.787194,3.787194,54.31911150734789,1.585999999999999,-2.432236615
mp-1413511,AlBiO3,True,0.0,4.274583999999999,4.274583999999999,4.274583999999999,78.10549111437115,0.0,-0.8888229550000001
mp-1183159,AlAuO3,True,0.0,3.7613299999999996,3.7613299999999996,3.7613299999999996,53.21380497954462,0.0,-1.400460893
mp-1418444,AlAgO3,True,0.0,4.003726999999999,4.003726999999999,4.003726999999999,64.17906273811795,0.0,-0.250836723333333
mp-1183169,AlAgO3,True,0.0,3.7510279999999994,3.7510279999999994,3.7510279999999994,52.777755639906346,0.0,-1.615019715333333
mp-1068746,TlHPd3,True,0.0,4.09795544,4.09795544,4.09795544,68.81794424742806,0.0,-0.27469800174999903
mp-1187533,TlGeO3,True,0.0,3.8627349999999994,3.8627349999999994,3.8627349999999994,57.63479385946388,0.0,-1.3662863706666681
mp-1187481,TlGaO3,True,0.0,3.908875,3.908875,3.908875,59.724888506857425,0.0,-1.254612097166667
mp-998159,TlFeF3,True,0.0,4.254436,4.254436,4.254436,77.00625173301604,3.4393000000000002,-2.067485199666668
mp-1187483,TlCuO3,True,0.0,3.8428969999999993,3.8428969999999993,3.8428969999999993,56.75135471676904,0.0,-0.656654345666667
mp-22345,TiCdO3,True,0.0,4.095279999999999,4.095279999999999,4.095279999999999,68.6832443191659,0.0,-0.663174753666666
mp-1016846,TiCdO3,True,0.0,3.8869780000000005,3.8869780000000005,3.8869780000000005,58.72678792988994,0.0,-2.4732249276666662
mp-1187465,TiBeO3,True,0.0,3.3889020000000003,3.3889020000000003,3.3889020000000003,38.92037628226894,0.0,-2.312304958666666
mp-1475723,TiAlO3,True,0.0,3.8608039999999995,3.8608039999999995,3.8608039999999995,57.54840132121698,0.0,-2.369078753666666
mp-9964,Ti3TlN,True,0.0,4.214039,4.214039,4.214039,74.83343002536053,0.0,-0.845159385416667
mp-4563,Ti3TlC,True,0.0,4.244205523333332,4.244205523333332,4.244205523333332,76.45206469455779,0.0,-0.515003204000001
mp-644483,Ti3SnH,True,0.0,4.165935043333334,4.165935043333334,4.165935043333334,72.29986427153574,0.0,-0.433976837749997
mp-1206767,AlFe3N,True,0.0,3.7178609999999996,3.7178609999999996,3.7178609999999996,51.390098037995735,0.0,-0.310164052999998
mp-1206123,AlFe3H,True,0.0,3.6995535300000006,3.6995535300000006,3.6995535300000006,50.634665689634645,0.0,-0.20500472224999902
mp-22793,AlFe3C,True,0.0,3.78977536,3.78977536,3.78977536,54.43025931948246,0.0,-0.159749470999999
mp-1206715,AlFe3B,True,0.0,3.8223219999999998,3.8223219999999998,3.8223219999999998,55.84468045961812,0.0,-0.146577185833332
mp-1504314,AlCuO3,True,0.0,3.6991479999999997,3.6991479999999997,3.6991479999999997,50.618016416915914,0.0,-0.848998753
mp-1435808,AlCoO3,True,0.0,3.6944819999999994,3.6944819999999994,3.6944819999999994,50.42671354838252,0.0,-1.043343859
mp-10037,AlCo3C,True,0.0,3.722911,3.722911,3.722911,51.59979334082594,0.0,-0.20122812149999703
mp-19845,TiPbO3,True,0.0,3.969049,3.969049,3.969049,62.52581792285582,1.585,-2.689368039666666
mp-1016842,TiHgO3,True,0.0,3.921312,3.921312,3.921312,60.29679039566384,0.0,-2.118964534166668
mp-1187487,ThCuO3,True,0.0,3.868279,3.868279,3.868279,57.88331164717667,0.0,-2.467409856999999
mp-21233,Ti3InN,True,0.0,4.187884219999999,4.187884219999999,4.187884219999999,73.44868072467396,0.0,-0.930242820333333
mp-20325,Ti3InC,True,0.0,4.23556108,4.23556108,4.23556108,75.98587116297644,0.0,-0.542402516333332
mp-10675,Ti3AlN,True,0.0,4.1170085866666675,4.1170085866666675,4.1170085866666675,69.78230623789933,0.0,-1.026473475749999
mp-3271,Ti3AlC,True,0.0,4.16993733,4.16993733,4.16993733,72.50844376204412,0.0,-0.591599556999995
mp-1187448,ThWO3,True,0.0,4.135014999999999,4.135014999999999,4.135014999999999,70.70192979791608,0.0,-2.093059474999999
mp-10732,ThTaN3,True,0.0,4.064437,4.064437,4.064437,67.1430690742335,0.0766,-1.507574309216659
mp-1183154,AlPbO3,True,0.0,3.8344800000000006,3.8344800000000006,3.8344800000000006,56.37926771481142,0.0,-2.191318702999999
mp-1416557,AlNiO3,True,0.0,3.659523999999999,3.659523999999999,3.659523999999999,49.00876957089658,0.0,-0.8944861109999991
mp-1183176,AlNiO3,True,0.0,3.6578630000000003,3.6578630000000003,3.6578630000000003,48.942066941764445,0.0,-1.386456107
mp-1207084,AlNi3C,True,0.0,3.7611399999999997,3.7611399999999997,3.7611399999999997,53.20574125296953,0.0,-0.175228431499998
mp-1433892,AlMoO3,True,0.0,4.007720999999999,4.007720999999999,4.007720999999999,64.37132382637043,0.0,-1.403197909
mp-1183133,AlIrO3,True,0.0,3.664087,3.664087,3.664087,49.1923229250551,0.0,-1.200752050999999
mp-1183160,AlInO3,True,0.0,3.714679,3.714679,3.714679,51.258261443683864,0.0,-2.2425046503333332
mp-1421498,AlFeO3,True,0.0,3.8010229999999994,3.8010229999999994,3.8010229999999994,54.916328291501166,0.0,-1.162526192999999
mp-1206753,AlFe3O,True,0.0,4.113634,4.113634,4.113634,69.61085155162793,0.0,0.542747052999999
mp-1187421,ThBeO3,True,0.0,3.659297,3.659297,3.659297,48.99965010566739,2.696799999999999,-3.458890785999999
mp-1206772,ThBRh3,True,0.0,4.256096939999999,4.256096939999999,4.256096939999999,77.09647711452591,0.0,-0.9264942364999961
mp-1187416,ThBO3,True,0.0,3.682134,3.682134,3.682134,49.922780730192386,0.0,-2.389358026833333
mp-1417649,AlWO3,True,0.0,3.94423652,3.94423652,3.94423652,61.36049434821571,0.0,-1.451336168999998
mp-1395974,AlVO3,True,0.0,3.8229829999999994,3.8229829999999994,3.8229829999999994,55.87365738853551,0.0,-1.751975723000001
mp-1183128,AlVO3,True,0.0,3.640495,3.640495,3.640495,48.24822233179429,0.0,-2.271212851
mp-1426094,AlSnO3,True,0.0,4.036562999999999,4.036562999999999,4.036562999999999,65.77111511498308,0.0,-1.353432764
mp-1183132,AlSiO3,True,0.0,3.5590179999999996,3.5590179999999996,3.5590179999999996,45.08068987243334,0.0,-2.154149702999999
mp-1421511,AlSbO3,True,0.0,4.051755,4.051755,4.051755,66.5165215902092,0.0,-1.270632357
mp-1183134,AlSbO3,True,0.0,3.753959,3.753959,3.753959,52.901571703463354,1.1346,-2.269544728999999
mp-10040,AlPt3C,True,0.0,4.18515,4.18515,4.18515,73.3049133087409,0.0,0.163335222500012
mp-1187425,ThSiO3,True,0.0,3.884033,3.884033,3.884033,58.593404576833066,0.0,-2.497889904999998
mp-22394,ThRu3C,True,0.0,4.21281975,4.21281975,4.21281975,74.76849403634931,0.0,-0.311079107
mp-1187556,ThReO3,True,0.0,4.001598,4.001598,4.001598,64.07673464732868,0.0,-2.091384777499999
mp-1187442,ThPdO3,True,0.0,4.045796000000001,4.045796000000001,4.045796000000001,66.22347133013457,0.0,-2.002714384999998
mp-1187460,ThMoO3,True,0.0,4.109289,4.109289,4.109289,69.39050638341453,0.0,-2.278413519
mp-979272,TePdO3,True,0.0,4.065242,4.065242,4.065242,67.18297192655213,0.0,-0.592522260333333
mp-1187400,TcSnO3,True,0.0,3.984185,3.984185,3.984185,63.24387741514354,0.0,-1.498840827
mp-1187389,TbVO3,True,0.0,3.842924,3.842924,3.842924,56.75255092161906,0.0,-2.891458178333335
mp-1187377,TbTeO3,True,0.0,4.270654,4.270654,4.270654,77.89026142912171,0.0,-1.610451417666666
mp-1013711,Ba3AsP,True,0.0,6.166984,6.166984,6.166984,234.54083393706426,0.0,-0.49995208842857103
mp-1013586,Ba3AsP,True,0.0,6.070904,6.070904,6.070904,223.74848125104208,0.0,-0.6829273324285711
mp-1013734,Ba3AsN,True,0.0,5.487585,5.487585,5.487585,165.25088001816093,0.0,-0.7428217785000001
mp-1013709,Ba3AsN,True,0.0,6.186616,6.186616,6.186616,236.78788656758616,0.0,0.293266061499998
mp-1183194,BTeO3,True,0.0,3.542919,3.542919,3.542919,44.47169373442934,0.0,-0.822164432166666
mp-1183211,BSbO3,True,0.0,3.520705000000001,3.520705000000001,3.520705000000001,43.64041894493444,1.4054,-1.260583828833333
mp-1183277,BPtO3,True,0.0,3.447224,3.447224,3.447224,40.96458071752925,0.0,-0.320351820833332
mp-1183242,BPdO3,True,0.0,3.428706,3.428706,3.428706,40.30795288597972,0.0,-0.5565497328333321
mp-984554,BPbO3,True,0.0,3.5659760000000005,3.5659760000000005,3.5659760000000005,45.34560992453005,0.0,-1.063800782833333
mp-984553,BOsO3,True,0.0,3.4074189999999995,3.4074189999999995,3.4074189999999995,39.56185275227553,0.0,-0.22443562083333202
mp-1183221,BIrO3,True,0.0,3.4156619999999998,3.4156619999999998,3.4156619999999998,39.849664043949886,0.0,-0.293507754833333
mp-1183212,BAuO3,True,0.0,3.49667,3.49667,3.49667,42.75273889652396,0.0,-0.30073161883333305
mp-1187364,TbSiO3,True,0.0,3.7283020000000007,3.7283020000000007,3.7283020000000007,51.82427694555711,0.0,-2.815659758333333
mp-542103,TbRh3C,True,0.0,4.15536456,4.15536456,4.15536456,71.75090685055872,0.0,-0.49176561033333205
mp-1187359,TbOsO3,True,0.0,3.963612,3.963612,3.963612,62.269216857666834,0.0,-1.880185856333332
mp-1187352,TbNiO3,True,0.0,3.738698,3.738698,3.738698,52.25900745238172,0.0,-2.294719268333332
mp-1187347,TbMgO3,True,0.0,3.8564570000000002,3.8564570000000002,3.8564570000000002,57.35423346911669,0.0,-2.757292313333333
mp-981132,TbGeO3,True,0.0,3.9158109999999984,3.9158109999999984,3.9158109999999984,60.04338473889148,0.0,-2.401135169333333
mp-1013707,Ba3PN,True,0.0,6.06005,6.06005,6.06005,222.55052458545018,0.0,0.25730490207142803
mp-1013533,Ba3PN,True,0.0,5.450725999999999,5.450725999999999,5.450725999999999,161.94332566307514,0.0,-0.6362765459285711
mp-1013719,Ba3BiSb,True,0.0,6.586374999999999,6.586374999999999,6.586374999999999,285.71915815502143,0.0,-0.530236362
mp-1013584,Ba3BiSb,True,0.0,6.537631,6.537631,6.537631,279.42239633610365,0.0,-0.664411328
mp-1013713,Ba3BiP,True,0.0,6.541219129999999,6.541219129999999,6.541219129999999,279.88272558470936,0.0,-0.15086505492857002
mp-1013691,Ba3BiP,True,0.0,6.142485,6.142485,6.142485,231.7567082809899,0.0,-0.8450844469285711
mp-1013710,Ba3BiN,True,0.0,6.609999999999999,6.609999999999999,6.609999999999999,288.8047809999999,0.0,0.618596262999999
mp-1013549,Ba3BiN,True,0.0,5.61211,5.61211,5.61211,176.75777433123696,0.0,-0.7924901430000001
mp-1013716,Ba3BiAs,True,0.0,6.5537271200000005,6.5537271200000005,6.5537271200000005,281.4913563156467,0.0,-0.30899205749999903
mp-1013563,Ba3BiAs,True,0.0,6.2477279999999995,6.2477279999999995,6.2477279999999995,243.87447177547193,0.0,-0.8243075855
mp-21392,Tb3InC,True,0.0,5.609421,5.609421,5.609421,176.50381960421194,0.0,1.421747851595239
mp-1206878,Tb3GaC,True,0.0,4.871416459999999,4.871416459999999,4.871416459999999,115.60211443626785,0.0,-0.5723961980000011
mp-1187342,TbErO3,True,0.0,4.24976,4.24976,4.24976,76.75262073438618,1.7284000000000002,-3.193704126333332
mp-1187321,TbCuO3,True,0.0,3.782912,3.782912,3.782912,54.13507164738998,0.0,-2.251320996333332
mp-1187310,TbBeO3,True,0.0,3.582893,3.582893,3.582893,45.99403544769507,0.0,-2.900455279333333
mp-3869,TbBRh3,True,0.0,4.17922594,4.17922594,4.17922594,72.99406545528203,0.0,-0.7850072811666661
mp-3022,TbBPd3,True,0.0,4.3277079999999994,4.3277079999999994,4.3277079999999994,81.05388779145885,0.0,-0.654714329409088
mp-29243,Ba3SnO,True,0.0,5.50211613,5.50211613,5.50211613,166.567112694078,0.0,-1.531505142000002
mp-754940,Ba3SiO,True,0.0,5.423827,5.423827,5.423827,159.55759664725554,0.0,-1.265288455
mp-1013737,Ba3SbP,True,0.0,6.113177,6.113177,6.113177,228.4551282878871,0.299199999999999,-0.8819724669285711
mp-1013712,Ba3SbP,True,0.0,6.483458,6.483458,6.483458,272.53363290988204,0.0,-0.30285898092857
mp-1013708,Ba3SbN,True,0.0,6.52,6.52,6.52,277.167808,0.0,0.47130420500000003
mp-1013557,Ba3SbN,True,0.0,5.573581,5.573581,5.573581,173.14220782832547,0.0,-0.870384568999999
mp-1013714,Ba3SbAs,True,0.0,6.492956,6.492956,6.492956,273.7331402002433,0.0,-0.45942058350000003
mp-1013562,Ba3SbAs,True,0.0,6.217784999999999,6.217784999999999,6.217784999999999,240.38485512129114,0.148699999999999,-0.8547799735
mp-29242,Ba3PbO,True,0.0,5.521845739999999,5.521845739999999,5.521845739999999,168.3653857304577,0.0,-1.492387526999997
mp-1187220,TaFeO3,True,0.0,3.9794169999999993,3.9794169999999993,3.9794169999999993,63.01709119847647,0.0,-2.140556650466666
mp-972222,TaBeO3,True,0.0,3.421618,3.421618,3.421618,40.058489189736044,0.0,-2.106223181466666
mp-1187189,TaAgO3,True,0.0,3.9993700000000003,3.9993700000000003,3.9993700000000003,63.96976476254997,1.7306,-2.3922839567999983
mp-1018638,Tb3AlN,True,0.0,4.78290322,4.78290322,4.78290322,109.41447468737682,0.0,-1.07354821175
mp-570822,Tb3AlC,True,0.0,4.902930609999999,4.902930609999999,4.902930609999999,117.86021811405152,0.0,-0.5037076540000011
mp-10041,Tb3AlC,True,0.0,5.3741069999999995,5.3741069999999995,5.3741069999999995,155.20972424877795,0.0,1.2828235299999982
mp-861873,TaTlO3,True,0.0,4.082848,4.082848,4.082848,68.05963814461339,0.6811,-2.576722779133334
mp-8074,TaSnO3,True,0.0,4.072593000000001,4.072593000000001,4.072593000000001,67.54808347028877,0.0,-2.360063697466667
mp-22087,TaRu3C,True,0.0,4.055607999999999,4.055607999999999,4.055607999999999,66.7064629497873,0.0,-0.128625297466669
mp-1214407,BaBO3,True,0.0,3.773902000000001,3.773902000000001,3.773902000000001,53.74918146839159,0.0,-1.573943142833333
mp-1183287,BaAuO3,True,0.0,4.211679,4.211679,4.211679,74.70777290092101,0.0,-1.464683951
mp-1183283,BaAlO3,True,0.0,3.9568529999999984,3.9568529999999984,3.9568529999999984,61.95120363810819,0.0,-2.895402251
mp-19836,Tb3TlC,True,0.0,5.640493,5.640493,5.640493,179.4531945109089,0.0,1.617043064333332
mp-20750,Tb3SnC,True,0.0,5.630731999999999,5.630731999999999,5.630731999999999,178.5231624428595,0.0,1.4514793780000002
mp-20963,Tb3PbC,True,0.0,5.706677999999999,5.706677999999999,5.706677999999999,185.8446675440063,0.0,1.614210617000001
mp-19769,Tb3InN,True,0.0,4.82578461,4.82578461,4.82578461,112.38382317002284,0.0,-1.190359023749999
mp-1186758,SrTmO3,True,0.0,4.316317999999999,4.316317999999999,4.316317999999999,80.41559878000965,0.0,-3.119328557000001
mp-981367,SrTlO3,True,0.0,4.279558,4.279558,4.279558,78.3784643099874,0.0,-1.6242701456666682
mp-5229,SrTiO3,True,0.0,3.9127013100000005,3.9127013100000005,3.9127013100000005,59.90045030664284,1.771999999999999,-3.5511922376666663
mp-1016823,BaGeO3,True,0.0,3.980388999999999,3.980388999999999,3.980388999999999,63.063279553631546,0.0,-2.463637802000001
mp-19035,BaFeO3,True,0.0,3.9515666733333332,3.9515666733333332,3.9515666733333332,61.70323615130954,0.0,-2.102256507666665
mp-1183310,BaEuO3,True,0.0,4.437278,4.437278,4.437278,87.36750141389481,0.0,-2.773289008
mp-1183291,BaErO3,True,0.0,4.395468,4.395468,4.395468,84.92105246203396,0.0,-3.164587624999998
mp-1183286,BaDyO3,True,0.0,4.428138999999999,4.428138999999999,4.428138999999999,86.82878720439079,0.0,-3.117626003333332
mp-1076800,BaCuO3,True,0.0,4.003691,4.003691,4.003691,64.17733153205626,0.0,-1.663166091
mp-1076782,BaCoO3,True,0.0,3.9815929999999997,3.9815929999999997,3.9815929999999997,63.120523575171525,0.0,-1.8256327430000001
mp-5663,BaCeO3,True,0.0,4.474193,4.474193,4.474193,89.56619857936725,2.299,-3.5495028570000002
mp-1183292,BaCdO3,True,0.0,4.302665,4.302665,4.302665,79.65491918762994,0.0,-1.6376950989999992
mp-1183285,BaCaO3,True,0.0,4.464426,4.464426,4.464426,88.98091885869187,0.0,-2.279992301
mp-545783,BaBiO3,True,0.0,4.428113,4.428113,4.428113,86.82725775700082,0.0,-2.212216009
mp-1183282,BaBeO3,True,0.0,3.8940839999999994,3.8940839999999994,3.8940839999999994,59.04946220190076,0.0,-2.025947064
mp-1187260,TaInO3,True,0.0,4.067158999999999,4.067158999999999,4.067158999999999,67.27805888471048,0.0,-2.506883887799999
mp-19322,BaMoO3,True,0.0,4.04839936,4.04839936,4.04839936,66.35139263198728,0.0,-2.5167960949999992
mp-1016852,BaMnO3,True,0.0,4.033312999999999,4.033312999999999,4.033312999999999,65.61237804092855,0.0,-2.356205420586207
mp-1183284,BaLiO3,True,0.0,4.086802,4.086802,4.086802,68.25756506368646,0.0,-1.653488577666667
mp-632808,BaLiH3,True,0.0,5.065785999999999,5.065785999999999,5.065785999999999,129.99915167544575,1.1987,0.011095910583333
mp-23818,BaLiH3,True,0.0,4.01142218,4.01142218,4.01142218,64.54983172455981,2.2146,-0.6094920114166651
mp-10250,BaLiF3,True,0.0,3.98858164,3.98858164,3.98858164,63.45348177862734,6.564299999999999,-3.741441043666666
mp-5660,BaIrO3,True,0.0,4.077295,4.077295,4.077295,67.78231600459345,0.0,-1.879881156999999
mp-1183288,BaInO3,True,0.0,4.285794999999999,4.285794999999999,4.285794999999999,78.7216487718088,0.0,-2.162446134333333