material_id,formula_pretty,is_fit,rms_A,a_A,b_A,c_A,volume_A3,band_gap,formation_energy_per_atom
mp-1209227,RbCaBr3,True,0.0,5.73669,5.73669,5.73669,188.79224295977733,4.0839,-2.2604592365
mp-1183934,CsBaO3,True,0.0,5.030816,5.030816,5.030816,127.32547365151035,0.0,-1.308042148931034
mp-1185548,CsAuO3,True,0.0,4.289972,4.289972,4.289972,78.95204306569005,0.0,-0.459805178931034
mp-1112985,CsAuF3,True,0.0,4.567677,4.567677,4.567677,95.2985201030349,0.0,-1.813374640666666
mp-23026,CsAuCl3,True,0.0,5.206832999999999,5.206832999999999,5.206832999999999,141.1630216413003,0.0,-1.123558720500003
mp-1112987,CsAuBr3,True,0.0,5.4725399999999995,5.4725399999999995,5.4725399999999995,163.895426145143,0.0,-1.165763424931035
mp-1183911,CsAsO3,True,0.0,4.075589,4.075589,4.075589,67.69726825568856,0.0,-1.126004108431035
mp-1206983,Ho3PbC,True,0.0,4.86345615,4.86345615,4.86345615,115.03632884060738,0.0,-0.539698745999997
mp-1183923,CsAcO3,True,0.0,4.870276999999999,4.870276999999999,4.870276999999999,115.52101286493185,0.0,-2.186816213431034
mp-975296,RbHoO3,True,0.0,4.497734,4.497734,4.497734,90.98740980757066,0.0,-2.300576585499999
mp-1186886,RbHgO3,True,0.0,4.378672,4.378672,4.378672,83.95126452155172,0.0,-0.473718297000001
mp-7482,RbHgF3,True,0.0,4.54921913,4.54921913,4.54921913,94.14788543919498,0.6454000000000001,-2.229765481
mp-1186885,RbGeO3,True,0.0,3.9486209999999997,3.9486209999999997,3.9486209999999997,61.56534998932347,0.0,-1.4869830475
mp-571458,RbGeI3,True,0.0,5.91458197,5.91458197,5.91458197,206.9055618468492,0.554,-1.021950393500002
mp-975308,RbGdO3,True,0.0,4.472071,4.472071,4.472071,89.4388218566224,0.0,-2.3090469385
mp-7104,CsCaF3,True,0.0,4.52053103,4.52053103,4.52053103,92.37795928990893,6.9005,-3.715830655999998
mp-1183115,AcAlO3,True,0.0,3.8586338700000002,3.8586338700000002,3.8586338700000002,57.45141323768982,4.1024,-3.690019421500002
mp-30056,CsCaBr3,True,0.0,5.70866573,5.70866573,5.70866573,186.03893347623892,4.3923,-2.304029258931034
mp-983578,CsBiO3,True,0.0,4.417567,4.417567,4.417567,86.20837029442202,0.0,-1.362185876931035
mp-1017555,CsBeF3,True,0.0,4.035341,4.035341,4.035341,65.71139997579614,5.367100000000001,-2.741533069931034
mp-975386,RbDyO3,True,0.0,4.5191479999999995,4.5191479999999995,4.5191479999999995,92.29319774023973,0.0,-2.285551702833332
mp-975364,RbCuO3,True,0.0,4.046069,4.046069,4.046069,66.23687800780135,0.0,-0.6591540465000001
mp-554601,RbCuF3,True,0.0,4.069994739999999,4.069994739999999,4.069994739999999,67.41888160621579,0.0,-2.3056485615
mp-1183052,AcBO3,True,0.0,3.7216679999999993,3.7216679999999993,3.7216679999999993,51.548126407860565,0.8071,-2.475389555333333
mp-1076360,RbCrO3,True,0.0,3.94693,3.94693,3.94693,61.486287631130566,0.0,-1.5577121245
mp-1954899,RbCrF3,True,0.0,4.18673153,4.18673153,4.17428825,73.16993370833276,0.0,-2.843224284249999
mp-975380,RbCdO3,True,0.0,4.465707,4.465707,4.465707,89.05753605405575,0.0,-0.7188131464999991
mp-1209203,RbCdN3,True,0.0,4.58767,4.58767,4.58767,96.55538772430367,0.0,1.6662884875000001
mp-6951,RbCdF3,True,0.0,4.42498073,4.42498073,4.42498073,86.64313367399816,3.1745,-2.696909542499998
mp-975382,RbCaO3,True,0.0,4.616623999999999,4.616623999999999,4.616623999999999,98.39510984595375,0.0,-1.484000282499999
mp-23949,RbCaH3,True,0.0,4.52097295,4.52097295,4.52097295,92.40505411028691,3.2736,-0.47965106625000004
mp-570591,CsHgCl3,True,0.0,5.402792000000001,5.402792000000001,5.402792000000001,157.70837046504124,0.0,-1.520184172431036
mp-27718,CsHgBr3,True,0.0,5.695004999999999,5.695004999999999,5.695004999999999,184.70656387080206,0.0,-1.306981333431035
mp-984051,CsGeO3,True,0.0,4.064553,4.064553,4.064553,67.14881807585644,0.0,-1.282106945931035
mp-570223,CsGeBr3,True,0.0,5.53332714,5.53332714,5.53332714,169.417801492696,0.760699999999999,-1.429876501931033
mp-984082,CsGdO3,True,0.0,4.5454550000000005,4.5454550000000005,4.5454550000000005,93.91437828700509,0.0,-2.266336368931034
mp-558694,CsFeF3,True,0.0,4.31177,4.31177,4.31177,80.16167060494224,0.0,-2.435511946931034
mp-1185550,CsEuO3,True,0.0,4.602523,4.602523,4.602523,97.4962479003604,0.0,-1.9649679339310362
mp-8396,CsEuF3,True,0.0,4.76988464,4.76988464,4.76988464,108.52345886680294,0.0,-3.573640819000002
mp-1068377,CsEuCl3,True,0.0,5.633140016666666,5.633140016666666,5.633140016666666,178.75229994421642,0.6374000000000001,-2.4895203925000002
mp-1183925,CsCdO3,True,0.0,4.5410189999999995,4.5410189999999995,4.5410189999999995,93.63968780473488,0.0,-0.6906371229310341
mp-8399,CsCdF3,True,0.0,4.4868106800000005,4.4868106800000005,4.4868106800000005,90.32609495079801,3.2859,-2.695887164000001
mp-568544,CsCdCl3,True,0.0,5.264401669999999,5.264401669999999,5.264401669999999,145.89723275270384,1.7462,-1.701237753500001
mp-570231,CsCdBr3,True,0.0,5.53006949,5.53006949,5.53006949,169.11875228033412,0.6968000000000001,-1.552803656931034
mp-984240,CsCaO3,True,0.0,4.684888,4.684888,4.684888,102.8247443617045,0.0,-1.4831044389310342
mp-866101,AcCrO3,True,0.0,3.944286886666667,3.944286886666667,3.944286886666667,61.36284504119384,2.0031,-3.1389721295
mp-644203,CsCaH3,True,0.0,4.621186,4.621186,4.621186,98.68709087228876,3.1408,-0.49522195699999905
mp-864606,AcCuO3,True,0.0,3.91333125,3.91333125,3.91333125,59.92938665681022,0.0,-2.4228924235
mp-861502,AcFeO3,True,0.0,3.9535738766675244,3.9535738766675244,3.9535738766675244,61.79731063300687,0.9887999999999991,-2.771539465500001
mp-1183922,CsNdO3,True,0.0,4.717574,4.717574,4.717574,104.99198912886199,0.0,-2.147413578431035
mp-1096944,CsNbO3,True,0.0,4.170919,4.170919,4.170919,72.55966476353424,1.276199999999999,-2.5807554569310343
mp-1183929,CsNaO3,True,0.0,4.448345,4.448345,4.448345,88.02284214895064,0.0,-0.26553723720689604
mp-1183917,CsMoO3,True,0.0,4.1330800000000005,4.1330800000000005,4.1330800000000005,70.60272032171414,0.0,-1.7754282169310351
mp-984756,CsMgO3,True,0.0,4.292401,4.292401,4.292401,79.08622793913015,0.0,-1.320384183931035
mp-8401,CsMgF3,True,0.0,4.252307,4.252307,4.252307,76.89070343345318,6.7028,-3.427780151749997
mp-1183918,CsLaO3,True,0.0,4.765355,4.765355,4.765355,108.21457999119708,0.0,-2.224715933931035
mp-984357,CsKO3,True,0.0,4.493182,4.493182,4.493182,90.71143373223842,0.0,-0.41133048838103403
mp-984356,CsIrO3,True,0.0,4.093677,4.093677,4.093677,68.60262261525105,0.0,-1.048420376931034
mp-10134,TmBPd3,True,0.0,4.297151,4.297151,4.297151,79.34907065360815,0.0,-0.673166220045456
mp-998322,CsInF3,True,0.0,4.674301000000001,4.674301000000001,4.674301000000001,102.12922248166254,0.0,-2.610831457500006
mp-5438,TmBRh3,True,0.0,4.15099888,4.15099888,4.15099888,71.52499705552428,0.0,-0.822294699833335
mp-613384,CsIO3,True,0.0,4.590332,4.590332,4.590332,96.72356434542107,0.0,0.593694428068965
mp-561947,CsHgF3,True,0.0,4.595449719999999,4.595449719999999,4.595449719999999,97.04743386104963,0.7228,-2.246846599431038
mp-600089,CsPbBr3,True,0.0,5.948630820004024,5.948630820004024,5.948630820004024,210.4994912755821,1.7819,-1.6092965694310362
mp-1183920,CsPaO3,True,0.0,4.42986213,4.42986213,4.42986213,86.93019019772653,2.972999999999999,-3.457622890931035
mp-1183914,CsOsO3,True,0.0,4.055253,4.055253,4.055253,66.6889474096607,0.0,-1.320445812931034
mp-1183933,CsNpO3,True,0.0,4.391044,4.391044,4.391044,84.66489357279501,0.0,-2.981902242681035
mp-975384,RbBiO3,True,0.0,4.259822,4.259822,4.259822,77.29908558651587,0.0,-1.447628566500001
mp-975394,RbBeO3,True,0.0,3.8811449999999996,3.8811449999999996,3.8811449999999996,58.462799125832106,0.0,-1.0485717035
mp-975387,RbBaO3,True,0.0,4.995184999999999,4.995184999999999,4.995184999999999,124.63922265174291,0.0,-1.279485676499999
mp-975385,RbBO3,True,0.0,3.693679999999999,3.693679999999999,3.693679999999999,50.393880708204,0.0,-0.5978283683333331
mp-975405,RbAuO3,True,0.0,4.21732,4.21732,4.21732,75.00835937393516,0.0,-0.5241850445
mp-1111644,RbAuF3,True,0.0,4.514404999999999,4.514404999999999,4.514404999999999,92.00290804343292,0.0,-1.912463796499999
mp-1110791,RbAuCl3,True,0.0,5.163532999999999,5.163532999999999,5.163532999999999,137.67049400123688,0.0,-1.322804313499999
mp-1110999,RbAuBr3,True,0.0,5.436989999999999,5.436989999999999,5.436989999999999,160.722101625561,0.0,-1.138901488499999
mp-975425,RbAsO3,True,0.0,3.9394159999999996,3.9394159999999996,3.9394159999999996,61.135790683882725,0.0,-1.358327302
mp-975427,RbAlO3,True,0.0,3.94407,3.94407,3.94407,61.35272302053714,0.0,-1.9253732725000001
mp-975421,RbAgO3,True,0.0,4.255791999999999,4.255791999999999,4.255791999999999,77.07990692192168,0.0,-0.453735536833333
mp-972395,TmBeO3,True,0.0,3.5366769999999996,3.5366769999999996,3.5366769999999996,44.23705371244031,0.0,-2.8847607240000013
mp-27214,CsSnBr3,True,0.0,5.83900561,5.83900561,5.83900561,199.07497852024176,0.5984,-1.560889131931036
mp-1184022,CsSmO3,True,0.0,4.654806,4.654806,4.654806,100.85670052802942,0.0,-2.186409559931035
mp-567939,CsSmCl3,True,0.0,5.499793999999999,5.499793999999999,5.499793999999999,166.35630620018514,0.0,-2.176575867833352
mp-1187577,TmCrO3,True,0.0,3.8336629999999996,3.8336629999999996,3.8336629999999996,56.34323775911635,1.9288999999999992,-2.848458345000002
mp-1185561,CsSbO3,True,0.0,4.195009999999999,4.195009999999999,4.195009999999999,73.82424281700844,0.0,-1.614402738931034
mp-1183971,CsRuO3,True,0.0,4.070421,4.070421,4.070421,67.44006663288721,0.0,-1.267780486931035
mp-1183926,CsRbO3,True,0.0,4.559767,4.559767,4.559767,94.80428201626086,0.0,-0.415958548431034
mp-1183919,CsPrO3,True,0.0,4.754944,4.754944,4.754944,107.50687043553488,0.0,-2.121710247264368
mp-1183913,CsPdO3,True,0.0,4.199705,4.199705,4.199705,74.07238969648931,0.0,-0.6875276629310351
mp-1207302,CsPdF3,True,0.0,4.414264,4.414264,4.414264,86.01514171656484,0.0,-2.019031868999997
mp-1147710,CsPdCl3,True,0.0,5.063223999999999,5.063223999999999,5.063223999999999,129.80201183630243,0.0,-1.224252413000005
mp-1187655,TmGeO3,True,0.0,3.887070999999999,3.887070999999999,3.887070999999999,58.7310033295804,0.0,-2.306310488000002
mp-1185545,CsPbO3,True,0.0,4.480574000000001,4.480574000000001,4.480574000000001,89.9499576571466,0.0,-1.121751016931034
mp-1069538,CsPbI3,True,0.0,6.275142290000001,6.275142290000001,6.275142290000001,247.09885552918604,1.4785,-1.238177400931034
mp-5811,CsPbF3,True,0.0,4.8314112300000005,4.8314112300000005,4.8314112300000005,112.77738319130253,2.9083,-2.7725124149310343
mp-23037,CsPbCl3,True,0.0,5.67984477,5.67984477,5.67984477,183.23540813354208,2.1878,-1.8739801989310392
mp-1207081,CsTmH3,True,0.0,4.451799,4.451799,4.451799,88.22804230427565,0.0,-0.260829814502875
mp-579768,CsTmCl3,True,0.0,5.312188,5.312188,5.312188,149.90644647326462,0.0,-2.103063920666682
mp-1185544,CsTlO3,True,0.0,4.535003,4.535003,4.535003,93.26801547114742,0.0,-0.7549294995977021
mp-1183053,AcGaO3,True,0.0,3.94626209,3.94626209,3.94626209,61.455078293307366,2.895900000000001,-3.063252617
mp-10279,Ho3GaC,True,0.0,5.274446,5.274446,5.274446,146.73393054302568,0.0,1.197182022500003
mp-1183977,CsTiO3,True,0.0,4.106980999999999,4.106980999999999,4.106980999999999,69.27365160285484,0.0,-2.358746077597701
mp-1183997,CsThO3,True,0.0,4.575334,4.575334,4.575334,95.77858339239336,0.0,-2.963829882931033
mp-1183976,CsTeO3,True,0.0,4.259985,4.259985,4.259985,77.30795936087551,0.0,-1.4237870662643681
mp-1185551,CsTbO3,True,0.0,4.593958,4.593958,4.593958,96.95295739897536,0.0,-2.246749296264368
mp-1185552,CsTaO3,True,0.0,4.144158,4.144158,4.144158,71.1719581712204,1.862699999999999,-2.7759975843977003
mp-1183972,CsSrO3,True,0.0,4.929642,4.929642,4.929642,119.7970554328997,0.0,-1.3818688869310352
mp-8397,CsSrF3,True,0.0,4.76324701,4.76324701,4.76324701,108.0710349506573,6.1846,-3.639248854000001
mp-1213642,CsSrCl3,True,0.0,5.67282446,5.67282446,5.67282446,182.55680856735304,4.970000000000001,-2.525664675499999
mp-984745,CsSnO3,True,0.0,4.274027,4.274027,4.274027,78.07496246650327,0.0,-1.528053325931034
mp-614013,CsSnI3,True,0.0,6.286228,6.286228,6.286228,248.41075007279017,0.449999999999999,-1.181536319931034
mp-1070375,CsSnCl3,True,0.0,5.564785930000002,5.564785930000002,5.564785930000002,172.32384914406762,0.9786999999999991,-1.554896451500002
mp-510492,PuRh3C,True,0.0,4.184058495,4.184058495,4.20821912,73.67053781058334,0.0,-0.115642708749999
mp-975588,PuPtO3,True,0.0,4.054548999999999,4.054548999999999,4.054548999999999,66.65422143645638,0.0,-1.5235192667499962
mp-1186799,PuPbO3,True,0.0,4.3580380000000005,4.3580380000000005,4.3580380000000005,82.77001583757495,0.0,-2.469338892749996
mp-754892,Rb3ClO,True,0.0,5.533679,5.533679,5.533679,169.45012298942564,0.47940000000000005,-1.552755477499999
mp-30055,Rb3BrO,True,0.0,5.477419779999999,5.477419779999999,5.477419779999999,164.3342463166375,0.3851,-1.500405602499999
mp-975463,RbAcO3,True,0.0,4.636158,4.636158,4.636158,99.64939924630725,0.0,-2.226777475
mp-1207091,Cu3RuN,True,0.0,3.870965,3.870965,3.870965,58.00397193792088,0.0,0.5111324889999991
mp-1207194,Cu3RhN,True,0.0,3.8487679999999984,3.8487679999999984,3.8487679999999984,57.01185856899717,0.0,0.253803012999998
mp-1206517,Cu3PdN,True,0.0,3.8787289999999994,3.8787289999999994,3.8787289999999994,58.35368837447999,0.0,0.036469496142856
mp-1185564,CsYbO3,True,0.0,4.446848532818322,4.446848532818322,4.446848532818322,87.93403677090595,0.0,-2.104876888250001
mp-1206323,CsYbH3,True,0.0,4.429080368031168,4.429080368031168,4.429080368031168,86.88417518260496,2.9265,-0.259172890249999
mp-8398,CsYbF3,True,0.0,4.514411799478329,4.514411799478329,4.514411799478329,92.00332376115546,7.0604,-3.205172131
mp-1070599,CsYbCl3,True,0.0,5.229907937939061,5.229907937939061,5.229907937939061,143.04811263993867,5.3324,-2.106338284499998
mp-568005,CsYbBr3,True,0.0,5.521521192702319,5.521521192702319,5.521521192702319,168.33570037416135,4.3382,-1.8053148135000012
mp-865424,CsUO3,True,0.0,4.415419,4.415419,4.415419,86.082677427204,0.45710000000000006,-3.216834692931034
mp-2647024,CsUBr3,True,0.0,5.786103,5.786103,5.786103,193.71287247911607,0.0,-1.4875308449310332
mp-1186662,PuGaO3,True,0.0,3.8733059999999995,3.8733059999999995,3.8733059999999995,58.109270823407314,0.0,-2.583174226249997
mp-2647102,PuCuO3,True,0.0,3.823017,3.823017,3.823017,55.87514815209355,0.0,-2.001217212749996
mp-975564,PuBO3,True,0.0,3.562941,3.562941,3.562941,45.229927574695196,0.0,-2.26484911258333
mp-29676,Dy3AlC,True,0.0,4.8703325,4.8703325,4.8703325,115.52496222301356,0.0,-0.529014536999997
mp-1184073,CuPdO3,True,0.0,3.793113,3.793113,3.793113,54.57419554411089,0.0,-0.09465899899999901
mp-1184117,CuPbO3,True,0.0,3.8731889999999995,3.8731889999999995,3.8731889999999995,58.10400510519203,0.0,-0.917831334999999
mp-1017556,CuNi3N,True,0.0,3.7021274633333334,3.7021274633333334,3.7021274633333334,50.74042516844172,0.0,-0.027755303750001
mp-1080799,CuNF3,True,0.0,3.887755,3.887755,3.887755,58.76201311227689,0.0,-0.246280713999999
mp-1184044,CuHgO3,True,0.0,3.8317199999999993,3.8317199999999993,3.8317199999999993,56.25761252110441,0.0,-0.347448159500001
mp-1184051,CuBiO3,True,0.0,3.850057999999999,3.850057999999999,3.850057999999999,57.06920415385434,0.0,-1.092523053
mp-1184042,CuBO3,True,0.0,3.350959,3.350959,3.350959,37.627671376176025,0.0,-0.696853816833333
mp-998414,CuAgF3,True,0.0,4.008427999999999,4.008427999999999,4.008427999999999,64.4053969728588,0.0,-1.529609442
mp-4405,Rb3AuO,True,0.0,5.509328249999999,5.509328249999999,5.509328249999999,167.2229752673023,0.19789999999999902,-0.8160150875000001
mp-1186812,PuTiO3,True,0.0,3.9175059999999995,3.9175059999999995,3.9175059999999995,60.121389727310564,0.0,-3.223825307416663
mp-1186801,PuSbO3,True,0.0,4.315703,4.315703,4.315703,80.38123021840794,0.0,-2.023732902749998
mp-19828,PuRu3C,True,0.0,4.167104,4.167104,4.167104,72.36074313157995,0.0,0.32939255925000305
mp-1186471,PrPbO3,True,0.0,4.537287,4.537287,4.537287,93.4090064158571,0.0,-1.980562581333332
mp-975913,PrNbO3,True,0.0,4.086932,4.086932,4.086932,68.26407903161855,0.0,-2.9259439773333322
mp-20097,Pt3PbC,True,0.0,4.348043,4.348043,4.348043,82.2018309745344,0.0,0.357862233499997
mp-1069346,PrVO3,True,0.0,3.9359049999999995,3.9359049999999995,3.9359049999999995,60.972474715206324,0.0,-2.990521863333335
mp-754046,PrTlO3,True,0.0,4.645080999999999,4.645080999999999,4.645080999999999,100.22587919050302,0.0,-1.7671209720000012
mp-22513,Dy3TlC,True,0.0,5.613252999999999,5.613252999999999,5.613252999999999,176.86579535353468,0.0,1.4643505664533452
mp-19899,Dy3SnC,True,0.0,4.87069979,4.87069979,4.87069979,115.55110070330097,0.0,-0.620115104999997
mp-19818,Dy3PbC,True,0.0,4.893014233333333,4.893014233333333,4.893014233333333,117.14653225984607,0.0,-0.5313133199999961
mp-31056,Dy3InN,True,0.0,4.79206634,4.79206634,4.79206634,110.04453130007028,0.0,-1.203262676749994
mp-19881,Dy3InC,True,0.0,4.9031569,4.9031569,4.9031569,117.87653803892059,0.0,-0.683934114999999
mp-20922,Dy3GaC,True,0.0,5.3007610000000005,5.3007610000000005,5.3007610000000005,148.94113867846465,0.0,1.042344111999995
mp-1017557,Dy3AlN,True,0.0,4.75093043,4.75093043,4.75093043,107.23486581765529,0.0,-1.087709248749999
mp-1188081,PuNiO3,True,0.0,3.777441999999999,3.777441999999999,3.777441999999999,53.900577003409786,0.0,-2.067242016749998
mp-1186787,PuMgO3,True,0.0,3.8279099999999997,3.8279099999999997,3.8279099999999997,56.08996317733966,0.0,-2.698261395749997
mp-975596,PuIrO3,True,0.0,4.134388,4.134388,4.134388,70.66977267988912,0.0,-1.077175328749997
mp-1186797,PuInO3,True,0.0,4.148643999999999,4.148643999999999,4.148643999999999,71.40333675976983,0.0,-2.10330467608333
mp-20543,Pr3SnC,True,0.0,5.881029653333333,5.881029653333333,5.881029653333333,203.40428964139642,0.0,1.422657074999997
mp-1186747,PrHfO3,True,0.0,4.125883,4.125883,4.125883,70.23453716496483,0.0,-3.449797213333332
mp-9833,PrGaO3,True,0.0,4.603177,4.603177,4.603177,97.53781528000668,0.0,-1.588868872833333
mp-1186515,PrCuO3,True,0.0,3.8464840000000016,3.8464840000000016,3.8464840000000016,56.910420010591174,0.0,-2.312583337333333
mp-19353,PrCrO3,True,0.0,3.8867880000000006,3.8867880000000006,3.8867880000000006,58.71817644999848,1.847,-3.003632961333333
mp-20427,PrCoO3,True,0.0,3.818819,3.818819,3.818819,55.69128310911385,0.0,-2.381077041333333
mp-976727,PrBiO3,True,0.0,4.448834,4.448834,4.448834,88.05187400348734,0.0,-1.919920315333334
mp-1186742,PrBeO3,True,0.0,3.6804089999999996,3.6804089999999996,3.6804089999999996,49.85265037165064,0.0,-2.853243746333333
mp-5200,PrBRh3,True,0.0,4.246218716666667,4.246218716666667,4.246218716666667,76.56090895613134,0.0,-0.6683155041666621
mp-1183771,DyCuO3,True,0.0,3.7754980000000002,3.7754980000000002,3.7754980000000002,53.817402617518816,0.0,-2.232829211333333
mp-1207000,DyBiO3,True,0.0,4.422165,4.422165,4.422165,86.47783908075132,0.0,-1.684665227333333
mp-3183,DyBRh3,True,0.0,4.1729933599999995,4.1729933599999995,4.1729933599999995,72.66797883208626,0.0,-0.793701890166664
mp-10060,DyBPd3,True,0.0,4.319571,4.319571,4.319571,80.5975518762924,0.0,-0.6601321862272751
mp-984723,DyAlO3,True,0.0,3.711247,3.711247,3.711247,51.11631980728927,2.9483,-3.617029635333332
mp-754696,PrTiO3,True,0.0,3.9432359999999984,3.9432359999999984,3.9432359999999984,61.31381091813306,0.0,-3.481524188
mp-10708,PrRh3C,True,0.0,4.22136644,4.22136644,4.22136644,75.22447397106309,0.0,-0.352597181333331
mp-20388,Pr3PbC,True,0.0,5.930013,5.930013,5.930013,208.52922843410647,0.0,1.404406070911113
mp-21135,Pr3InO,True,0.0,5.01386247,5.01386247,5.01386247,126.0425704350417,0.0,-1.510910203333332
mp-20990,Pr3InN,True,0.0,5.07883424,5.07883424,5.07883424,131.00628050292852,0.0,-0.9993550707499961
mp-19749,Pr3InC,True,0.0,5.831276,5.831276,5.831276,198.28542498807576,0.0,1.420860966833328
mp-8368,Pr3GaC,True,0.0,5.537392999999999,5.537392999999999,5.537392999999999,169.79153793566394,0.0,1.112487955161114
mp-20684,Pr3AlN,True,0.0,5.587362,5.587362,5.587362,174.4296982214099,0.0,1.015425827250001
mp-1094072,Pr3AlN,True,0.0,5.0424066,5.0424066,5.0424066,128.20754605647855,0.0,-0.8458429647499991
mp-10039,Pr3AlC,True,0.0,5.137283,5.137283,5.137283,135.58151165215526,0.0,-0.23128765722222203