material_id,formula_pretty,is_fit,rms_A,a_A,b_A,c_A,volume_A3,band_gap,formation_energy_per_atom
mp-637378,Gd3InN,True,0.0,4.876275484636909,4.876275484636909,4.876275484636909,115.94838373864015,0.0,-1.092494317749992
mp-20501,Gd3InC,True,0.0,5.660395999999999,5.660395999999999,5.660395999999999,181.35955695559767,0.0,1.457961374000007
mp-1016883,ZrZnO3,True,0.0,4.143062,4.143062,4.143062,71.11550484229129,0.0,-2.246558206999999
mp-1183044,ZrTlO3,True,0.0,4.212646,4.212646,4.212646,74.75924335094658,0.0,-2.454293249666669
mp-1183045,ZrTiO3,True,0.0,3.859099,3.859099,3.859099,57.47219178112415,0.0,-2.729424507666666
mp-1183043,ZrSiO3,True,0.0,3.6634729999999984,3.6634729999999984,3.6634729999999984,49.16759723607474,0.0,-2.219989547
mp-10706,ZrRu3C,True,0.0,4.0755165,4.0755165,4.0755165,67.69365555236604,0.0,-0.377479948000001
mp-972985,KPdO3,True,0.0,4.070076,4.070076,4.070076,67.42291986772541,0.0,-0.8254632004499991
mp-9061,KPdF3,True,0.0,4.309255999999999,4.309255999999999,4.309255999999999,80.02153630160856,0.0,-2.109119648449999
mp-1184935,KPbO3,True,0.0,4.360783999999999,4.360783999999999,4.360783999999999,82.92657461938231,0.0,-1.2000465644499991
mp-1206970,KPaO3,True,0.0,4.35600548,4.35600548,4.35600548,82.6542619610523,3.0477,-3.552497714449997
mp-1185009,KOsO3,True,0.0,3.9311589999999996,3.9311589999999996,3.9311589999999996,60.75217475613984,0.0,-1.625179570449999
mp-1185015,KNpO3,True,0.0,4.2931089700000005,4.2931089700000005,4.2700321500000005,78.70004291254317,0.0,-3.1130405402
mp-560976,KNiF3,True,0.0,4.00807153,4.00807153,4.00807153,64.38821576101539,0.0,-2.636112260449999
mp-935811,KNbO3,True,0.0,4.02918278,4.02918278,4.02918278,65.41101790884895,1.412099999999999,-2.844397452450001
mp-3448,KMgF3,True,0.0,3.9784682299999994,3.9784682299999994,3.9784682299999994,62.97202846293479,6.9536999999999995,-3.536225051449999
mp-1184941,KLuO3,True,0.0,4.375635,4.375635,4.375635,83.77670255820917,0.0,-2.379096527783333
mp-1184939,KLiO3,True,0.0,4.048757,4.048757,4.048757,66.36897884792486,0.0,-0.749774829116666
mp-974734,KInO3,True,0.0,4.308432999999999,4.308432999999999,4.308432999999999,79.97569649952496,0.0,-1.274736737783332
mp-558843,KIO3,True,0.0,4.200263,4.200263,4.200263,74.10191883154758,0.0,-1.16837982945
mp-1184944,KHoO3,True,0.0,4.448353999999999,4.448353999999999,4.448353999999999,88.02337641990901,0.0,-2.306167295449999
mp-7483,KHgF3,True,0.0,4.52986409244832,4.52986409244832,4.52986409244832,92.9513104151847,0.6082000000000001,-2.198555532950001
mp-1147577,GdCrO3,True,0.0,3.871736,3.871736,3.871736,58.03863768944233,0.7847000000000001,-2.938642427
mp-20951,GdCoO3,True,0.0,3.7734279999999996,3.7734279999999996,3.858133999999999,54.93503971871658,0.0,-2.329470012999999
mp-1184471,GdCdO3,True,0.0,4.138427000000001,4.138427000000001,4.138427000000001,70.87709295487412,0.0,-1.811146170999999
mp-1184468,GdBeO3,True,0.0,3.599403,3.599403,3.599403,46.63279248900443,0.0,-2.8734107680000003
mp-19840,GdBRh3,True,0.0,4.19647241,4.19647241,4.19647241,73.90147668633227,0.0,-0.794227558499997
mp-20967,GdBPd3,True,0.0,4.305525,4.305525,4.305525,79.81386569921659,0.0,-0.5967424729545511
mp-1178268,GdAlO3,True,0.0,3.7353280000000004,3.7353280000000004,3.7353280000000004,52.11781860191403,1.8884999999999992,-3.613716829
mp-1207135,Gd3TlC,True,0.0,4.968367326666667,4.968367326666667,4.968367326666667,122.64252723785712,0.0,-0.49641709199999
mp-1207074,Gd3SnC,True,0.0,4.947478036666667,4.947478036666667,4.947478036666667,121.10208621467557,0.0,-0.6906250300000011
mp-973830,KErO3,True,0.0,4.426509,4.426509,4.426509,86.7329373460614,0.0,-2.325421858449998
mp-1184954,KDyO3,True,0.0,4.468639999999999,4.468639999999999,4.468639999999999,89.23312572862048,0.0,-2.289703654783333
mp-1023129,KCuCl3,True,0.0,4.7980520166666665,4.7980520166666665,4.7980520166666665,110.45741002741065,0.0,-1.260361290249999
mp-1076732,KCrO3,True,0.0,3.8647329999999993,3.8647329999999993,3.8647329999999993,57.72427493335189,0.0,-1.671608068449999
mp-555036,KCrF3,True,0.0,4.219636,4.219636,4.219636,75.13200290455114,0.0,-2.84165480245
mp-1184947,KCoO3,True,0.0,3.8739700000000012,3.8739700000000012,3.8739700000000012,58.13916092561983,0.0,-1.021574084449999
mp-559946,KCoF3,True,0.0,4.105254999999999,4.105254999999999,4.105254999999999,69.18634945992439,0.0,-2.44229455445
mp-1184503,GdRhO3,True,0.0,3.963804,3.963804,3.963804,62.27826638278755,0.0,-2.071613033000001
mp-20182,GdRh3C,True,0.0,4.169686063333333,4.169686063333333,4.169686063333333,72.49533719299849,0.0,-0.49975093199999704
mp-1184486,GdErO3,True,0.0,4.241146,4.241146,4.241146,76.28684769568456,0.3657,-3.241294056999999
mp-1184481,GdCuO3,True,0.0,3.798793000000001,3.798793000000001,3.798793000000001,54.81972936632024,0.0,-2.246362585
mp-555123,KMnF3,True,0.0,4.182679,4.182679,4.182679,73.17514769812144,2.6564,-3.014391749036205
mp-1184960,KMgO3,True,0.0,4.127702,4.127702,4.127702,70.32747214842628,0.0,-1.43925509345
mp-23737,KMgH3,True,0.0,3.9880979999999995,3.9880979999999995,3.9880979999999995,63.430402205239176,2.458,-0.34565612720000005
mp-1017580,KMgH3,True,0.0,4.435872,4.435872,4.435872,87.28447768517216,0.0,0.7029927288000001
mp-4950,KCaF3,True,0.0,4.481726,4.481726,4.481726,90.01935657512333,6.1392,-3.695437950449999
mp-1211589,KCaCl3,True,0.0,5.393522999999999,5.393522999999999,5.393522999999999,156.89807138304968,4.7635000000000005,-2.44181366925
mp-982040,KBiO3,True,0.0,4.284203999999999,4.284203999999999,4.284203999999999,78.63401066432927,0.0,-1.479716392449999
mp-973396,KBeO3,True,0.0,3.7715739999999993,3.7715739999999993,3.7715739999999993,53.649774337953076,0.0,-1.19330633545
mp-973447,KBaO3,True,0.0,5.013730999999999,5.013730999999999,5.013730999999999,126.03265569426263,0.0,-1.24249163245
mp-1184942,KAuO3,True,0.0,4.15778,4.15778,4.15778,71.87610219949094,0.0,-0.5509545864499991
mp-1111868,KAuF3,True,0.0,4.4844,4.4844,4.4844,90.180581563584,0.0,-1.885072838449999
mp-1110854,KAuCl3,True,0.0,5.138475000000001,5.138475000000001,5.138475000000001,135.67591018759097,0.0,-1.291860333449999
mp-1184562,GeBiO3,True,0.0,3.9479100000000003,3.9479100000000003,3.9479100000000003,61.53209907785568,0.0,-1.446279978
mp-973738,GeBO3,True,0.0,3.407341,3.407341,3.407341,39.55913595647476,0.0,-1.010670925833333
mp-1184599,GdZrO3,True,0.0,4.162337000000001,4.162337000000001,4.162337000000001,72.11269373474485,0.0,-3.280181134999999
mp-1184491,GdThO3,True,0.0,4.58893,4.58893,4.58893,96.63496616304798,0.0,-3.137951190999999
mp-1184484,GdSiO3,True,0.0,3.7303270000000004,3.7303270000000004,3.7303270000000004,51.908766751470495,0.0,-2.882494295
mp-998227,KHfO3,True,0.0,4.177954,4.177954,4.177954,72.92743889412984,0.0,-2.943229516449999
mp-1184987,KGdO3,True,0.0,4.46096,4.46096,4.46096,88.77383613989274,0.0,-2.31694479045
mp-556891,KFeF3,True,0.0,4.16531,4.16531,4.16531,72.26732624504928,0.0,-2.50385350045
mp-1112174,KAuBr3,True,0.0,5.413377999999999,5.413377999999999,5.413377999999999,158.6372091625932,0.0,-1.103536214449999
mp-1184937,KAsO3,True,0.0,3.843473,3.843473,3.843473,56.77687739940846,0.0,-1.509571563949999
mp-1184936,KAlO3,True,0.0,3.8670139999999997,3.8670139999999997,3.8670139999999997,57.826543420211785,0.0,-2.056392494449999
mp-1097006,KAlH3,True,0.0,3.981682999999999,3.981682999999999,3.981682999999999,63.12480400428569,0.0,-0.081973535666665
mp-976229,KAgO3,True,0.0,4.192630999999999,4.192630999999999,4.192630999999999,73.69871632707591,0.0,-0.49075426278333206
mp-13819,KAgF3,True,0.0,4.313309,4.313309,4.313309,80.24753755772119,0.0,-2.107393218783332
mp-1185008,KAcO3,True,0.0,4.65408,4.65408,4.65408,100.80951668519734,0.0,-2.212632814949999
mp-1004524,HPbI3,True,0.0,6.244212999999999,6.244212999999999,6.244212999999999,243.4630886693657,0.0,0.03798616875
mp-1184641,GeTeO3,True,0.0,3.901783,3.901783,3.901783,59.40039549100962,0.0,-1.014709907333333
mp-1184557,GePdO3,True,0.0,3.767674,3.767674,3.767674,53.483516561437256,0.0,-0.935923786
mp-1017566,GePbO3,True,0.0,3.8884369999999984,3.8884369999999984,3.8884369999999984,58.79294308872979,0.0,-1.711472209999999
mp-1184992,KCdO3,True,0.0,4.339857,4.339857,4.339857,81.73842379384307,0.0,-0.7239852104499991
mp-1211584,KCdN3,True,0.0,4.567068,4.567068,4.567068,95.26040725410972,0.0,1.597863703985575
mp-10175,KCdF3,True,0.0,4.382089020000001,4.382089020000001,4.382089020000001,84.1479591380005,3.1006,-2.6754186824499993
mp-982885,KCaO3,True,0.0,4.568674,4.568674,4.568674,95.36093697143247,0.0,-1.470941566449999
mp-1070713,InNi3N,True,0.0,3.83985571,3.83985571,3.83985571,56.61672131196684,0.0,-0.142051175749998
mp-975443,InCuO3,True,0.0,3.787341,3.787341,3.787341,54.3254369445951,0.0,-0.905988302333332
mp-1068786,InCo3N,True,0.0,3.8271013966666665,3.8271013966666665,3.8271013966666665,56.05442554618297,0.0,-0.024554889749998
mp-545379,InBiO3,True,0.0,4.172779,4.172779,4.172779,72.65678089350268,0.045199999999999005,-1.321871238333334
mp-1184751,InSiO3,True,0.0,3.663019,3.663019,3.663019,49.14932005240002,0.0,-2.062533560333333
mp-1184765,InSbO3,True,0.0,4.106234,4.106234,4.106234,69.2358588741692,0.0,-1.4147006043333321
mp-1184773,InPtO3,True,0.0,4.029858,4.029858,4.029858,65.44390862037989,0.0,-0.733743860333332
mp-28171,K3IO,True,0.0,5.294230149999999,5.294230149999999,5.294230149999999,148.3913038780023,1.0284,-1.445846300349999
mp-1070737,K3CO,True,0.0,5.231061999999999,5.231061999999999,5.231061999999999,143.14283103647003,0.2972,0.202475497649999
mp-28166,K3BrO,True,0.0,5.19026401,5.19026401,5.19026401,139.8196942845503,0.8913000000000001,-1.56421230635
mp-9200,K3AuO,True,0.0,5.22438571,5.22438571,5.22438571,142.59546003697025,0.5612,-0.8797196933499991
mp-1016841,HfHgO3,True,0.0,4.122739,4.122739,4.122739,70.07409939156388,0.0,-2.3668584595
mp-1017446,HfCdO3,True,0.0,4.098109,4.098109,4.098109,68.82568084657431,0.0,-2.670019158999999
mp-1184563,HfBeO3,True,0.0,3.438335,3.438335,3.438335,40.64850377274624,1.0495,-2.887019377999999
mp-1017578,HfBRh3,True,0.0,4.09526278,4.09526278,4.09526278,68.68237791650677,0.0,-0.8244594524999961
mp-1184625,HfBO3,True,0.0,3.4250850000000006,3.4250850000000006,3.4250850000000006,40.18038200861251,0.0,-2.021541438833333
mp-982558,HoGeO3,True,0.0,3.9049229999999997,3.9049229999999997,3.9049229999999997,59.543920169682764,0.0,-2.352758180999998
mp-1184778,HoErO3,True,0.0,4.246395,4.246395,4.246395,76.57044471496806,1.4474,-3.133445371999998
mp-1021667,IClO3,True,0.0,4.141923,4.141923,4.141923,71.05686828778931,0.0,0.041897825999999
mp-973977,HoSnO3,True,0.0,4.351836,4.351836,4.351836,82.41714412638174,0.0,-2.131808972999998
mp-1184813,HoSiO3,True,0.0,3.7095999999999996,3.7095999999999996,3.7095999999999996,51.04829586073598,0.0,-2.783655503999998
mp-1207180,HoSbO3,True,0.0,4.246294999999999,4.246294999999999,4.246294999999999,76.56503528121007,0.0,-1.8637123139999971
mp-1206820,HoRu3C,True,0.0,4.12808859,4.12808859,4.12808859,70.34723407204834,0.0,-0.22687730999999903
mp-1184833,HoRhO3,True,0.0,3.9374350000000007,3.9374350000000007,3.9374350000000007,61.04360764756382,0.0,-1.986696937999998
mp-22664,HoRh3C,True,0.0,4.14152903,4.14152903,4.14152903,71.03659392846342,0.0,-0.513091249999999
mp-1184913,InAsO3,True,0.0,3.933194,3.933194,3.933194,60.84657034167246,0.0,-1.194767693833333
mp-1184597,HfThO3,True,0.0,4.120356,4.120356,4.120356,69.95265822570208,0.0,-3.158203890999999
mp-22535,HfPbO3,True,0.0,4.155481000000001,4.155481000000001,4.155481000000001,71.75693874710119,2.414899999999999,-2.959238816999998
mp-1184669,HfNpO3,True,0.0,4.121025,4.121025,4.121025,69.98673726680191,0.0,-3.132554204750001
mp-1016825,HfMgO3,True,0.0,4.072456,4.072456,4.072456,67.541266847953,1.1738,-3.037705825999999
mp-20796,InPt3C,True,0.0,4.258585999999999,4.258585999999999,4.258585999999999,77.2318194302537,0.0,0.18706455450001103
mp-1184799,InOsO3,True,0.0,3.973267000000001,3.973267000000001,3.973267000000001,62.72537273464168,0.0,-1.1343843523333321
mp-10356,Ho3InC,True,0.0,5.559884999999999,5.559884999999999,5.559884999999999,171.86895102859134,0.0,1.61326020666667
mp-1017577,Ho3AlN,True,0.0,4.7195201099999995,4.7195201099999995,4.7195201099999995,105.12197771673033,0.0,-1.098518032749999
mp-29677,Ho3AlC,True,0.0,4.83811738,4.83811738,4.83811738,113.2476509467386,0.0,-0.40051357799999304
mp-1016851,HgRuO3,True,0.0,3.9443309999999996,3.9443309999999996,3.9443309999999996,61.36490393041,0.0,-0.8271473795000011
mp-1016877,HgRhO3,True,0.0,3.970706,3.970706,3.970706,62.604160522924644,0.0,-0.5760463775000011
mp-1184736,HoCuO3,True,0.0,3.765209,3.765209,3.765209,53.37861048446102,0.0,-2.214273023999998
mp-1184610,HoBeO3,True,0.0,3.5627619999999993,3.5627619999999993,3.5627619999999993,45.22311094458821,0.0,-2.8888941549999982
mp-3710,HoBRh3,True,0.0,4.16588183,4.16588183,4.16588183,72.29709375236472,0.0,-0.80213519683333
mp-3693,HoBPd3,True,0.0,4.312193999999999,4.312193999999999,4.312193999999999,80.18532114107454,0.0,-0.6954327271881591
mp-1184546,HoBO3,True,0.0,3.4728339999999984,3.4728339999999984,3.4728339999999984,41.884378363059334,2.6416,-2.685989057833333
mp-1247483,Ni3SbN,True,4.6451197003079865e-17,3.9318584229557905,3.9318584229557905,3.918868,60.58378161395506,0.0,0.022412838333332002
mp-5566,KCuF3,True,1.1396557648484524e-16,5.657475345748507,5.657475345748507,7.976347500398605,255.2991721018521,0.0,-2.354250548449999
mp-547069,FeBiO3,True,1.4954166375916647e-16,5.576766,5.579822,7.892021,245.57887133531952,0.0,-1.419096528999999
mp-2695837,CsTlF3,True,0.000807299605228366,6.773887529953499,6.773887529953499,8.295383153741078,329.64238314303736,0.0,-2.356087311999999
mp-998307,CsPdBr3,True,0.0009025440338632948,5.278741727644862,5.279763407400537,5.28056099190153,147.17190812479862,0.0,-1.235734314931034
mp-1946459,CsAgBr3,True,0.0010728805020455592,5.420254856645592,5.41674293,5.421173362525217,159.16633079233864,0.0,-1.234567609264368
mp-1055491,RbAgF3,True,0.0011703513109899556,6.150090317794198,6.159246718535707,4.338357902335902,164.33666592712922,0.0,-2.129714515833333
mp-998196,RbCuBr3,True,0.0011733306931659842,5.132402376258366,5.153862302056752,5.146886029768255,136.14378958122265,0.0,-1.2007867865
mp-998552,BaHfO3,True,0.0015455914449847197,4.16956679986942,4.16956679986942,4.170376634314528,72.50319593081531,3.5394,-3.786714650999999
mp-998739,MgTlF3,True,0.001668453077686563,5.763086413121105,5.766610325457446,4.07704487882767,135.49436341342943,4.487,-3.075989374666666
mp-1944812,CsSeBr3,True,0.0018227675690721057,7.820083637065814,7.830226464326458,5.54212007,339.36078150013265,0.0,-0.8475140563124991
mp-998745,TlZnF3,True,0.0021817016985704847,4.117341669414059,4.11502468078564,4.12446155633439,69.8805841582613,3.9179,-2.328041165000002
mp-1975771,RbAgCl3,True,0.0035160267273628954,5.084282022337793,5.08785996,5.087955359552138,131.6157527944835,0.0,-1.4168307758333332
mp-2464440,KAgCl3,True,0.003832355602376412,5.12817365,5.12817365,5.12884144,134.87911836873917,0.0,-1.184942590249997
mp-1097916,CsCaCl3,True,0.004155478954338704,5.416346015991925,5.417338050681153,5.420258543704913,159.04216959735564,5.3331,-2.534308367499997
mp-2036008,RbPdBr3,True,0.004246686776631904,5.226664029906105,5.22554792,5.22746607913729,142.77349377481255,0.0,-1.068833430749998
mp-998762,MnTlF3,True,0.004868859658941661,5.990576995876367,5.990187502915574,4.233687939534757,151.92451999408496,2.6304,-2.595991289252874
mp-1383356,BaHfS3,True,0.005062688646762257,7.086751669161831,7.086751669161831,8.682443982480104,377.630489073165,0.8329000000000001,-2.111515094499999
mp-2898987,CsCaI3,True,0.005098612967582308,8.73465104646808,8.74897412,6.170848489944177,471.57152665985564,4.3729,-1.819434236931033
mp-2649045,CsInBr3,True,0.005116935517544482,5.69175635,5.69175635,5.68992117,184.33120029498258,0.0,-1.5218829312643671
mp-2011167,CsInI3,True,0.005138412252147347,6.105698545954806,6.114878708297568,6.117141222162058,228.38683484326793,0.0,-1.0796855625
mp-998786,TlPdF3,True,0.005276584243485766,4.271329549859519,4.271401243240745,4.272203516603178,77.9414513840786,0.0,-1.592664701999999
mp-2763000,TlAgF3,True,0.005643440177710782,6.137113702822529,6.15414068,4.336139085359197,163.76906105126264,0.0,-1.5914018170000022
mp-2647018,PmTiO3,True,0.005730162200803393,3.9201020689585366,3.9201620542290074,3.920489043387572,60.2478569104586,0.0,-3.460296333166667
mp-1947055,RbAgBr3,True,0.005730971561572735,7.596655901879482,7.5959791800000005,5.373826901956273,310.09137754119115,0.0,-1.049502209749999
mp-1950530,CsTlBr3,True,0.0063205451750905075,8.210335922918045,8.1821255,5.804638533394088,389.9435306858177,0.0,-1.271398984500001
mp-1422819,MnInF3,True,0.010584122947905525,6.092111680938637,6.092111680938637,7.453725192316926,239.57402045044722,2.9034999999999993,-2.502748895919539