material_id,formula_pretty,is_fit,rms_A,a_A,b_A,c_A,volume_A3,band_gap,formation_energy_per_atom
mp-756301,Cd(CoO2)2,True,0.059110266919339946,8.359976003824352,8.359976003824352,8.359976003824352,584.2720247650888,1.9265999999999992,-1.319261409285712
mp-21074,Cr2HgO4,True,0.059176522330607044,8.70553334672852,8.70553334672852,8.70553334672852,659.7602563389338,1.2575,-1.886074827500002
mp-1402005,Ca(CoO2)2,True,0.05933953936190554,8.478398,8.478398,8.478398,609.4546559028065,2.292,-1.829552452857142
mp-759448,Na(FeO2)2,True,0.061762336784987014,8.40875,8.40875,8.40875,594.5581300449218,0.0,-1.446097686625615
mp-754069,Co2HgO4,True,0.0622131674564077,8.767452,8.767452,8.767452,673.938381588376,0.0,-1.018324116785715
mp-753385,LiAg2F4,True,0.06313612637411764,9.362066,9.362066,9.362066,820.568980165055,0.0,-1.7107788020238082
mp-756317,Al2HgO4,True,0.06569625182894281,8.56381,8.56381,8.56381,628.0599060767544,1.346099999999999,-2.5423616575
mp-1104359,In2CoSe4,True,0.06737560442869889,11.048234,11.048234,11.048234,1348.585829336254,0.0,-0.42213596380952706
mp-1388111,Ca(FeS2)2,True,0.06774335702583852,10.226826,10.226826,10.226826,1069.602971233755,0.0,-0.89834862642857
mp-1408976,Ca(CoS2)2,True,0.07270583389792454,10.135658,10.135658,10.135658,1041.251989315705,0.9638999999999991,-0.8209887408928561
mp-5639,Mg2SiO4,True,0.0766944413812936,8.15338,8.15338,8.15338,542.0171785151946,4.7454,-3.141419681428571
mp-18766,Si(NiO2)2,True,0.07714462085285623,8.028046614567534,8.028046614567534,8.028046614567534,517.4038507609155,3.576999999999999,-2.087303751428571
mp-1238859,K(CrS2)2,True,0.08326195058208266,10.796287999999999,10.796287999999999,10.796287999999999,1258.4135433466379,0.0,-0.878639669607142
mp-558096,Zn2SiO4,True,0.08566597174256974,8.253706,8.253706,8.253706,562.2726838531906,2.3636,-2.302588759285714
mp-19071,Co2SiO4,True,0.08603999422552668,8.210804,8.210804,8.210804,553.5502556109457,0.0,-2.065518774285714
mp-18816,Fe2SiO4,True,0.09345365415555995,8.333856365573537,8.333856365573537,8.333856365573537,578.8126755929574,2.7099,-2.262714642857143
mp-1238779,Rb(CrS2)2,True,0.09540933256203561,10.922266,10.922266,10.922266,1302.981493253442,0.0,-0.814582431071427
mp-754234,V2SiO4,True,0.09655937655868205,8.362722,8.362722,8.362722,584.8479603186108,0.6219,-2.552792156428572
mp-18803,Na2WO4,True,0.10149650672857333,9.07488302,9.07488302,9.07488302,747.3483953645164,4.752099999999999,-2.214918839679804
mp-1255006,Al(SnO2)2,True,0.10169383698319763,9.222614,9.222614,9.222614,784.4442728913309,0.0,-1.94892810642857
mp-18852,Na2MoO4,True,0.10556341682059657,9.031271882646825,9.031271882646825,9.031271882646825,736.6255021923063,4.3983,-2.149706168251234
mp-1238886,Cs(CrS2)2,True,0.10694558852072848,11.15558,11.15558,11.15558,1388.2780753363213,0.0,-0.739053800665024
mp-19318,Ag2MoO4,True,0.11972285608710263,9.28615355401327,9.28615355401327,9.28615355401327,800.7696091065806,1.873099999999999,-1.251052689761907
mp-560842,Cd2SiO4,True,0.12272091344691524,8.818506,8.818506,8.818506,685.7803615195377,1.0232,-2.080809688571428