material_id,formula_pretty,is_fit,rms_A,a_A,b_A,c_A,volume_A3,band_gap,formation_energy_per_atom
mp-15804,Yb2MgSe4,True,0.019888025692641483,11.466363452950036,11.466363452950036,11.466363452950036,1507.5686957977175,0.0,-1.976050610892859
mp-1104381,Ni(RhS2)2,True,0.020155265955430164,9.73557,9.73557,9.73557,922.7502069486394,0.0,-0.737881771428569
mp-1045348,Al(CoS2)2,True,0.02037775089177534,9.627132,9.627132,9.627132,892.2586763213088,0.0,-0.659299016517853
mp-15802,Tm2MgSe4,True,0.020557423611768776,11.499336190111796,11.499336190111796,11.499336190111796,1520.6116486287658,1.4057,-1.952045741339285
mp-1232129,Er2MgS4,True,0.02094199887192376,11.043371740000095,11.043371740000095,11.043371740000095,1346.8060997653654,2.0129,-2.173917604999997
mp-505522,Fe(NiS2)2,True,0.02111536831123228,9.382004,9.382004,9.382004,825.8227472315383,0.0,-0.6554052428571411
mp-1103561,Er2MgSe4,True,0.02130690455685725,11.539855039999999,11.539855039999999,11.539855039999999,1536.7423510620727,1.3296000000000001,-1.9563507449107131
mp-28226,MnCr2O4,True,0.02175381133169405,8.454502955688511,8.454502955688511,8.454502955688511,604.3162059840132,2.2026,-2.337050971133004
mp-3536,MgAl2O4,True,0.021766943862177524,8.08039118882845,8.08039118882845,8.08039118882845,527.5907336404648,5.1095,-3.370001377142852
mp-3807,Al2CdSe4,True,0.021783273950942792,10.844353559137419,10.844353559137419,10.844353559137419,1275.2960231853262,1.261099999999999,-1.029442259196428
mp-1443364,Zn(NiS2)2,True,0.02218942229359631,9.720834,9.720834,9.720834,918.566453239793,0.0,-0.6505046642857131
mp-1232270,Ho2MgS4,True,0.022399167089116573,11.086361546957102,11.086361546957102,11.086361546957102,1362.5960101113671,1.9659,-2.165219511428566
mp-14305,Lu2MnS4,True,0.02244483456638813,10.877979920076918,10.877979920076918,10.877979920076918,1287.196227940011,0.0,-1.932407855894898
mp-1103893,Lu2MnSe4,True,0.022589350842726466,11.38392389053105,11.38392389053105,11.38392389053105,1475.2850809778263,0.7626000000000001,-1.7092109308056251
mp-756442,Mg(CoO2)2,True,0.022652876223816596,8.0839263,8.0839263,8.0839263,528.2834877172473,0.0,-1.835428532142858
mp-1238827,Cr2AgS4,True,0.023144248260801352,10.138621410091654,10.138621410091654,10.138621410091654,1042.1655636220776,0.0,-0.8334234516666661
mp-1103791,Ho2MgSe4,True,0.023186626343914662,11.578081080731423,11.578081080731423,11.578081080731423,1552.0644794169186,1.3026,-1.9524603627678552
mp-753489,Zn(CoO2)2,True,0.023486437089125917,8.067319171683799,8.067319171683799,8.067319171683799,525.0343509461117,0.0,-1.410660542857143
mp-1046890,Zn(SnO2)2,True,0.02366506621960189,9.301262,9.301262,9.301262,804.6844955767774,0.0,-1.5736040649999992
mp-1178472,CaTm2O4,True,0.02368718196864974,9.53805,9.53805,9.53805,867.7183549601352,4.2171,-3.84091545357143
mp-1232131,Dy2MgS4,True,0.023711117737815503,11.128275276669966,11.128275276669966,11.128275276669966,1378.1090361806728,1.9295,-2.161060283333331
mp-22766,CaIn2O4,True,0.023823038807156183,6.5654218173469765,6.5654218173469765,9.33036461386426,402.18316135279935,2.020799999999999,-2.392656165476187
mp-3951,Ti2CuS4,True,0.023922106492042416,9.97652441984883,9.97652441984883,9.97652441984883,992.9738461030928,0.0,-1.437793791666667
mp-1001017,Zn(InSe2)2,True,0.023977308203140032,11.31838,11.31838,11.31838,1449.9492850563724,0.698599999999999,-0.801941784672618
mp-1103510,Al2HgSe4,True,0.024033937544701758,10.853512880000002,10.853512880000002,10.853512880000002,1278.5301617683588,0.38209999999999905,-0.7833482612500261
mp-1232083,Dy2MgSe4,True,0.02421728369979544,11.61812782,11.61812782,11.61812782,1568.225280236182,1.287399999999999,-1.953513270386902
mp-1001024,Y2MgS4,True,0.02432587545059565,11.141585763465704,11.141585763465704,11.141585763465704,1383.0600058788148,0.2525,-2.156400925714284
mp-1395289,Zn(FeS2)2,True,0.02450368640689513,9.682494,9.682494,9.682494,907.7404940021582,0.0,-0.7324233335714271
mp-15803,Y2MgSe4,True,0.02453461840017973,11.63554119067559,11.63554119067559,11.63554119067559,1575.2872712796755,1.3007,-1.95491398919643
mp-1040470,Li(FeS2)2,True,0.02458550382503687,9.71764,9.71764,9.71764,917.6613033243916,0.0,-0.8052452404761901
mp-2908,Al2ZnO4,True,0.02461589315177671,8.07527169145087,8.07527169145087,8.07527169145087,526.5885710958021,3.845999999999999,-3.021072628571429
mp-1408959,Y(FeO2)2,True,0.024627247405723304,8.95801,8.95801,8.95801,718.8439612876074,0.0,-2.24456211
mp-1001012,Sc2ZnS4,True,0.02497669126837194,10.500402266750154,10.500402266750154,10.500402266750154,1157.7580548249623,0.5768,-1.875742454999999
mp-22052,Zn(InS2)2,True,0.024982493626087097,10.752326000000002,10.752326000000002,10.752326000000002,1243.1034446189858,1.1222,-0.792174898239792
mp-1001016,Sc2ZnSe4,True,0.025155579209048713,11.01243078680438,11.01243078680438,11.01243078680438,1335.5174768380496,0.23490000000000003,-1.6739128091964282
mp-1232112,Tb2MgS4,True,0.02522670192182294,11.171897670011191,11.171897670011191,11.171897670011191,1394.3790442809975,1.8836,-2.156416330476191
mp-27719,Al2CuO4,True,0.02544777592514233,8.062193318616224,8.062193318616224,8.062193318616224,524.0341899517557,0.0,-2.653946341428571
mp-9993,Al2CdS4,True,0.02552121958100248,10.277952722586344,10.277952722586344,10.277952722586344,1085.7250222481991,2.462299999999999,-1.12634982232144
mp-36447,Al2CoO4,True,0.025529760317611613,8.080407258957814,8.080407258957814,8.080407258957814,527.593881434181,3.0024,-2.863333982142858
mp-754211,SrLa2O4,True,0.025595698477665227,10.351112,10.351112,10.351112,1109.0752740560663,3.7880000000000003,-3.598485091428571
mp-1232301,Tb2MgSe4,True,0.025974229267335423,11.659717287157369,11.659717287157369,11.659717287157369,1585.1269896133654,1.2477,-1.9542346468154732
mp-688785,Al2NiO4,True,0.02610028198005531,5.786602458302973,5.790504845252097,9.962130837575163,272.9468020864749,3.3947,-2.779105725000001
mp-18750,Mn(FeO2)2,True,0.026111309409003608,5.801268528407937,5.806717988328344,5.818427374525439,139.3885134825241,0.9977,-1.836117058275863
mp-1046867,Mg(SnO2)2,True,0.02628155385707028,9.319018,9.319018,9.319018,809.301698331152,0.0,-1.905438122857142
mp-753418,SrNd2O4,True,0.026342073700345275,10.18786,10.18786,10.18786,1057.4233712265718,3.6022,-3.547404760714285
mp-1045397,Li(NiS2)2,True,0.026726114642672105,9.67386,9.67386,9.67386,905.3143283569083,0.0,-0.7403222654761901
mp-1096547,Co2NiO4,True,0.026863925135017116,5.7178713763618365,5.7178713763618365,14.334722675164002,405.87162506932515,0.0,-1.039772013571428
mp-1398164,Mg(AgO2)2,True,0.02717486648377457,9.028880000000001,9.028880000000001,9.028880000000001,736.0403835562913,0.0,-0.9306097183333321
mp-755634,Y2HgO4,True,0.027238725813509685,9.718666,9.718666,9.718666,917.9519973326793,1.2172,-2.9200823325
mp-22605,Cr2CdSe4,True,0.027360416699929096,10.822379216670052,10.822379216670052,10.822379216670052,1267.559173575929,0.0,-0.8274603791964281
mp-1232170,Gd2MgS4,True,0.027401333757718603,11.239306086666886,11.239306086666886,11.239306086666886,1419.7716382010349,1.6184,-2.148114347142855
mp-1104053,Al2HgS4,True,0.02897416508827969,10.317365706666811,10.317365706666811,10.317365706666811,1098.2633071418156,1.304899999999999,-1.082598808928577
mp-1445806,Zn(AgO2)2,True,0.029019932750146825,9.010337999999997,9.010337999999997,9.010337999999997,731.5150207094532,0.0,-0.6080478340476181
mp-20499,Sc2FeS4,True,0.029201934761941144,10.506358,10.506358,10.506358,1159.729182118183,0.0,-1.684712336428571
mp-768465,Mg2FeO4,True,0.029268724491038886,8.500218,8.500218,8.500218,614.1722527118724,0.0,-2.256815799285714
mp-1232111,Sm2MgS4,True,0.029340523449827308,11.378712,11.378712,11.378712,1473.2597236326114,1.7418,-2.115846905714285
mp-30084,Al2FeO4,True,0.029343754402967985,8.126702329145251,8.126702329145251,8.126702329145251,536.7141647342818,0.0,-2.9035625028571412
mp-4338,Cr2CdS4,True,0.02966691650721532,10.28803893002433,10.28803893002433,10.28803893002433,1088.924569323931,0.0,-0.983280842142856
mp-754942,SrSm2O4,True,0.030088977502826273,10.076852,10.076852,10.076852,1023.2332408027008,3.8076,-3.61718043
mp-1020663,Si(GeN2)2,True,0.030223817617162228,8.145006,8.145006,8.145006,540.3488427643298,1.6596000000000002,-0.36321792047619
mp-1232072,Sm2MgSe4,True,0.030302295548854052,11.889186,11.889186,11.889186,1680.5690619660602,1.1339000000000001,-1.934004642767857
mp-5602,Cr2HgSe4,True,0.030450535352590742,10.838290350008522,10.838290350008522,10.838290350008522,1273.1581187036957,0.0,-0.7220372402678571
mp-22961,Li2ZnCl4,True,0.03055520320680434,10.284920422142328,10.284920422142328,10.284920422142328,1087.9346457905906,4.1422,-1.714316919047619
mp-753983,In2HgO4,True,0.030980670478599728,9.30047098,9.30047098,9.30047098,804.4792113695427,0.14620000000000002,-1.6002527151190482
mp-768600,Al(NiO2)2,True,0.03136767521515078,8.091179896910427,8.091179896910427,8.091179896910427,529.7068288222362,0.0,-1.911670162142856
mp-1103898,Cr(InS2)2,True,0.03154959373978478,10.757135999999997,10.757135999999997,10.757135999999997,1244.772479613878,0.0,-0.7515137061904751
mp-1384218,Y(CuO2)2,True,0.03158339769142515,8.801968,8.801968,8.801968,681.9293080154558,0.0,-1.760986013571428
mp-1232231,Pm2MgSe4,True,0.03240116278580211,11.940452,11.940452,11.940452,1702.402707559862,1.0956,-1.929045279196428
mp-1042163,Ca(WO2)2,True,0.03252179338527147,9.383176,9.383176,9.383176,826.132271242741,1.5984,-2.070880982857141
mp-1097024,Li(CoS2)2,True,0.03269043745124749,9.614082,9.614082,9.614082,888.63510527095,0.0,-0.8236062083333321
mp-754557,EuY2O4,True,0.03269072130759644,9.734133380000141,9.734133380000141,9.734133380000141,922.3417729910586,0.39029999999999904,-3.704852089285718
mp-15973,Cr2HgS4,True,0.032811543927538094,10.30049112000958,10.30049112000958,10.30049112000958,1092.8833162186124,0.0,-0.8526310274999991
mp-1232294,Pm2MgS4,True,0.03320731481603837,11.437313786666666,11.437313786666666,11.437313786666666,1496.1395683969806,1.5195999999999992,-2.0957781824107142
mp-1232055,Nd2MgSe4,True,0.03321265799435975,12.006292,12.006292,12.006292,1730.7195694625998,1.068899999999999,-1.916116056339285
mp-1103852,Co(RhS2)2,True,0.033281117466688256,9.684746,9.684746,9.684746,908.3740209900461,0.038199999999999006,-0.7109633399999981
mp-1400406,Zn(CoS2)2,True,0.03357540136181471,9.624582,9.624582,9.624582,891.5498493263325,0.7452000000000001,-0.6098689538520431
mp-770957,Be(CoO2)2,True,0.0335777974433462,7.675576539999999,7.675576539999999,7.675576539999999,452.20256387577643,0.0,-1.790018201428597
mp-1232096,Nd2MgS4,True,0.03361840559863851,11.491896000000002,11.491896000000002,11.491896000000002,1517.662003248924,0.00019999999999900002,-2.084623850714284
mp-1394188,Ca(TiS2)2,True,0.03380081669752501,10.738118,10.738118,10.738118,1238.1820855645253,0.0,-1.691479822380951
mp-1096954,Fe2SiS4,True,0.034371459794235795,9.876876,9.876876,9.876876,963.5157190806161,0.0,-0.5879096999999991
mp-755882,MnAl2O4,True,0.035093298140191416,8.18664831131955,8.18664831131955,8.18664831131955,548.6790803619353,2.6578,-3.047750007561575
mp-1232132,Eu2MgSe4,True,0.03512618373305745,11.959948000000002,11.959948000000002,11.959948000000002,1710.7552216074205,0.0,-1.638854373482143
mp-1775070,Mg(NiS2)2,True,0.035304975848869116,6.956643951407962,6.968161508198702,6.972200507525727,239.73690799355427,0.0,-0.7621318014285701
mp-1232394,Pr2MgSe4,True,0.035687217457492246,12.067522000000002,12.067522000000002,12.067522000000002,1757.3339437851105,1.0331,-1.901179712529761
mp-5643,Yb2FeS4,True,0.03570043591046285,10.802002428874678,10.802002428874678,10.802002428874678,1260.4128198348299,0.0,-1.778166285892855
mp-1398595,Y(NiO2)2,True,0.03575274653045497,8.778038,8.778038,8.778038,676.3825110644024,0.0,-1.977708699999999
mp-1232114,Pr2MgS4,True,0.03593266971193288,11.561526,11.561526,11.561526,1545.4162713828375,1.5962,-2.061999939761904
mp-1232045,Eu2MgS4,True,0.036153075817960366,11.420372,11.420372,11.420372,1489.5008374434874,0.0,-1.7654804057142872
mp-1232281,La2MgS4,True,0.03676921106890227,11.667666000000002,11.667666000000002,11.667666000000002,1588.371059028422,1.7443,-2.140215302142856
mp-1401503,Al(CuO2)2,True,0.03715659149767868,8.246944,8.246944,8.246944,560.8918591150755,0.0,-1.667530472142856
mp-14306,Lu2FeS4,True,0.037440447846346044,10.801952,10.801952,10.801952,1260.3951673012873,0.0,-1.77089175547619
mp-1232054,La2MgSe4,True,0.0378411862209482,12.152480000000002,12.152480000000002,12.152480000000002,1794.7119105973338,1.3291,-1.985175814196429
mp-1232246,Ce2MgS4,True,0.03792974940173334,11.478559376666666,11.478559376666666,11.478559376666666,1512.3842824975864,0.0,-2.01366903830357
mp-1001021,Y2ZnSe4,True,0.038153428204486015,11.557492000000002,11.557492000000002,11.557492000000002,1543.7991749172445,0.23900000000000002,-1.767582398482142
mp-1389421,Mg(FeS2)2,True,0.03827906803363951,9.859472,9.859472,9.859472,958.4312683998835,0.0,-0.844958678571428
mp-21333,Cd(FeO2)2,True,0.03908269875159638,8.735823242312563,8.735823242312563,8.735823242312563,666.6709238564519,1.8272,-1.6170501857142852
mp-1001015,Y2ZnS4,True,0.03938736844959856,11.032314,11.032314,11.032314,1342.764474163772,0.671899999999999,-1.929540753137753
mp-1047318,CaTi2O4,True,0.03960651389948991,8.88443,8.88443,8.88443,701.2755698702744,0.0,-3.2626038773809523
mp-1042046,Ca(MoO2)2,True,0.039623010962577525,9.162454378433623,9.162454378433623,9.162454378433623,769.1932698388772,2.3071,-2.296375504285713
mp-14025,Zr2CuS4,True,0.03979147970551392,10.401133662566126,10.401133662566126,10.401133662566126,1125.231890928867,0.0,-1.5954547421428562
mp-1212041,In2CuS4,True,0.03980981348614671,10.604428,10.604428,10.604428,1192.509213835272,0.0,-0.5648328573586361
mp-21112,In2FeS4,True,0.04081165942264318,10.676932,10.676932,10.676932,1217.1369032219952,0.0,-0.7271742861904741
mp-18847,V2CdO4,True,0.040882830536050054,10.853020200610334,6.258038193809303,6.272178965373037,347.96057436227,0.0,-2.23514351
mp-30545,Mg2VO4,True,0.041700935818267414,5.928330289947587,5.928330289947587,8.57561871590785,301.3909775615081,0.0,-2.7895048285714292
mp-1403906,CaV2O4,True,0.041703711393210705,8.918896,8.918896,8.918896,709.4687966973705,0.0,-2.771659082142858
mp-1405146,Ca(FeO2)2,True,0.04198325980435614,8.80752056,8.80752056,8.80752056,683.2206700774738,1.7361,-2.144335080714285
mp-1442788,Al(CoO2)2,True,0.04202723249225227,8.270046,8.270046,8.270046,565.6187212726982,0.0,-1.953348585
mp-1046873,Mg(SbO2)2,True,0.042297730895104704,9.47701,9.47701,9.47701,851.1655087417131,1.1013,-1.754807875714285
mp-25387,Li(MoO2)2,True,0.04242379650878,8.419058314236475,8.419058314236475,8.419058314236475,596.747424007332,0.0,-1.772182664047619
mp-1411384,Ca(VS2)2,True,0.04247012353462781,10.621421999999997,10.621421999999997,10.621421999999997,1198.2515306768707,0.0,-1.347588270714285
mp-1046871,Zn(SbO2)2,True,0.04256989904118643,9.45391,9.45391,9.45391,844.9565768024116,0.0388,-1.402911308571427
mp-753991,Mg2CoO4,True,0.04295060049705202,8.409117666666665,8.409117666666665,8.409117666666665,594.6361233604733,0.7214,-2.140810158214286
mp-21173,In2CoS4,True,0.04355671728862836,10.61002,10.61002,10.61002,1194.3967353387322,0.0,-0.5431005739880921
mp-14100,Cd(RhO2)2,True,0.043892043472287465,8.81234118,8.81234118,8.81234118,684.3431256619282,0.8366999999999991,-1.207960801428568
mp-3443,Cd(GaO2)2,True,0.04425853541328783,8.636171176017148,8.636171176017148,8.636171176017148,644.115463391928,1.5793,-2.030379208571428
mp-752643,NaTi2O4,True,0.04436573292849353,8.643834510015905,8.643834510015905,8.643834510015905,645.8316590868968,0.0,-3.098568724006566
mp-755558,BaLa2O4,True,0.04521346999214496,7.411979120011594,7.411979120011594,10.536546170000493,578.8508148123545,3.7033,-3.582359028571431
mp-1390919,Mg(CoS2)2,True,0.045377146493682206,9.804678,9.804678,9.804678,942.5404688426812,0.7916999999999991,-0.9070108242857141
mp-1389718,Ca(MnS2)2,True,0.045402192642094705,10.683956,10.683956,10.683956,1219.5406260490606,0.0,-1.209705307173641
mp-22638,Ni2GeO4,True,0.045437599547226634,8.220953209358209,8.220953209358209,8.220953209358209,555.6054909007389,2.1356,-1.662257669999998
mp-756229,Na(SnO2)2,True,0.04568270950430242,9.44646,9.44646,9.44646,842.9605876764981,0.0,-1.933845576625615
mp-756646,SrLu2O4,True,0.045811204594378346,9.546992160002082,9.546992160002082,9.546992160002082,870.1611665900141,3.5547,-3.7918457872619102
mp-1271990,CaCr2O4,True,0.04613687966218507,8.824153117936644,8.824153117936644,8.824153117936644,687.0986674993206,2.0955,-2.673972192857143
mp-1100332,Ca2SnS4,True,0.04658396176005856,11.294637999999999,11.294637999999999,11.294637999999999,1440.8439531662282,9.999999999976698e-05,-1.5875034264285701
mp-672297,Cr(GaS2)2,True,0.046817725811906,10.118018,10.118018,10.118018,1035.8248912337306,0.0,-0.695459417857142
mp-19262,Cr2CdO4,True,0.04717629482129394,8.632549047635017,8.632549047635017,8.632549047635017,643.3053507379872,1.8327,-2.141551745
mp-3904,Mg2GeO4,True,0.04727822429661391,8.249898966970731,8.249898966970731,8.249898966970731,561.494995570975,3.0734,-2.7410589342857152
mp-756851,AlCr2O4,True,0.047423842603483125,8.400812,8.400812,8.400812,592.8759007760042,0.0,-2.490556780714286
mp-1402814,Mn2AlO4,True,0.04850249672843845,8.499688,8.499688,8.499688,614.0573764822418,0.0,-2.428006884408868
mp-20960,In2NiS4,True,0.048564277227853885,10.56697,10.56697,10.56697,1179.9169047575206,0.0,-0.665188146904759
mp-1393403,Ca(CuO2)2,True,0.048883607271397025,8.773272,8.773272,8.773272,675.2813917358691,0.0,-1.469764702857143
mp-505623,Al(FeO2)2,True,0.04953272829979642,8.373822,8.373822,8.373822,587.1798922701759,0.0,-2.2173158007142852
mp-690799,Zr(TiH2)2,True,0.049681527467514044,8.13115888,8.13115888,8.13115888,537.5976248838118,0.0,-0.524159526190475
mp-1395193,Ca(CrS2)2,True,0.04980029630329015,10.555892,10.555892,10.555892,1176.2098569453103,1.386099999999999,-1.29483675642857
mp-1046883,Mg(BiO2)2,True,0.04987502566143314,9.66461,9.66461,9.66461,902.71986673183,1.5627,-1.847554112142858
mp-1238805,Na(CrS2)2,True,0.05001068394994855,10.393282,10.393282,10.393282,1122.6855511603549,0.0,-0.9743037459113291
mp-19456,AlV2O4,True,0.05006217491907075,5.9056914489752455,5.9056914489752455,8.177005879551093,285.1909998800424,0.0,-2.7117889364285723
mp-756338,NaV2O4,True,0.050236099285658475,8.624242,8.624242,8.624242,641.4499912101581,0.040799999999999004,-2.319587569482758
mp-1046891,Zn(BiO2)2,True,0.0506815116403077,9.654024,9.654024,9.654024,899.756768660234,0.39769999999999905,-1.489554818571428
mp-1104726,Cd2SnO4,True,0.051073901298767044,9.331821999999999,9.331821999999999,9.331821999999999,812.6421392114033,0.24499999999999902,-1.609490983571427
mp-760340,NaMn2O4,True,0.05135315750484573,8.459718,8.459718,8.459718,605.4351884446968,0.0,-1.8614688067487681
mp-1273576,Ca(NiO2)2,True,0.05173970306200832,8.727576566426867,8.727576566426867,8.727576566426867,664.7846800987328,0.0,-1.579994837142856
mp-18758,Co2GeO4,True,0.05205175293320979,10.170423496276097,5.8750212270791975,5.864472085669708,286.35608845258014,0.0,-1.636487282142857
mp-754114,SrSc2O4,True,0.0527256864378382,9.33071,9.33071,9.33071,812.3516652671169,3.503999999999999,-3.706797714285714
mp-754491,Fe2HgO4,True,0.05296386990583247,6.294542368957945,6.294542368957945,8.945421015973144,354.42888439642326,1.1461000000000001,-1.362688660357143
mp-755239,Ga2HgO4,True,0.054133279978603274,8.836302,8.836302,8.836302,689.9405193294392,0.5638000000000001,-1.7679808025000012
mp-36866,Al2CdO4,True,0.055480762763188314,8.477356,8.477356,8.477356,609.2299765330404,2.676,-2.820343855714285
mp-755611,NaCr2O4,True,0.05647759946999718,8.67015,8.67015,8.67015,651.7481895902283,0.0,-2.1263702866256162
mp-1262424,Ti2AlO4,True,0.057539147075586744,8.365394,8.365394,8.365394,585.4087393726586,0.0,-3.170859260238094
mp-22421,Fe2GeO4,True,0.058509885695749504,8.382199277595143,8.382199277595143,8.382199277595143,588.9439224569982,1.407699999999999,-1.831330290714285