material_id,formula_pretty,is_fit,rms_A,a_A,b_A,c_A,volume_A3,band_gap,formation_energy_per_atom
mp-30273,AcClO,True,1.1897309360542245e-16,4.25922539,4.25922539,7.12271631,129.21320315269972,4.4451,-3.586422302500002
mp-542757,EuClO,True,0.002128203986085799,3.93414068,3.93414068,6.96212735,107.75606769529391,0.0,-2.8875527833333363
mp-22952,CeClO,True,0.002335952266345266,4.05723465,4.05723465,6.89939821,113.57204957834132,0.0,-3.4051250333333343
mp-27981,PuClO,True,0.003969259367009399,3.970047349999999,3.970047349999999,6.86048405,108.12998233974925,0.0,-2.72245754458333
mp-23025,LaClO,True,0.004467374211956558,4.11542769,4.11542769,6.92503718,117.2875893291415,4.0688,-3.6045768816666692
mp-27984,PrClO,True,0.006611059844770137,4.08497421,4.08497421,6.82918546,113.95871540354885,4.7029,-3.453472725555557
mp-23058,NdClO,True,0.007613838518277196,4.04899113,4.04899113,6.78904691,111.30186979866941,4.766400000000001,-3.471199014166668
mp-1018828,NpSeO,True,0.008470608962472722,3.89996887,3.89996887,6.93797366,105.52489473818714,0.0,-2.41014346703125
mp-3217,USeO,True,0.009878802416260463,3.92653502,3.92653502,6.96767425,107.42535286221113,0.0,-2.665166589114585
mp-27823,SmClO,True,0.009895041848979477,3.98835344,3.98835344,6.73221284,107.08906164704587,4.876199999999999,-3.489553778333333
mp-23050,GdClO,True,0.010346523893109477,3.9428445500000002,3.9428445500000002,6.71801687,104.43844575264235,3.0355,-3.478307646666665
mp-9845,RbCaAs,True,0.012280924638565432,5.15632712,5.15632712,7.93134729,210.87635664674366,1.2985,-0.8403775799999991
mp-756134,ZrSeO,True,0.012921494534617444,3.705276,3.705276,6.69938,91.97625855883277,0.5998,-2.677899939114584
mp-27985,YClO,True,0.015965181866688723,3.88504381,3.88504381,6.66650489,100.621327584096,5.0892,-3.460912073333334
mp-755323,DyClO,True,0.016929093429467638,3.910189,3.910189,6.723644,102.80167948793441,5.167300000000001,-3.511445342222219
mp-1018737,KMgP,True,0.017057731145905388,4.44860499,4.44860499,7.54192427,149.25533260165312,1.6589,-0.628996292297619
mp-29731,HoClO,True,0.017304703776148917,3.85102199,3.85102199,6.69220481,99.2478759072211,5.1804,-3.508023086666663
mp-7950,ThSeO,True,0.018280429705278246,4.03862619,4.03862619,7.07161869,115.34164726873333,0.769,-3.304229294114581
mp-1247523,TaSeN,True,0.018806225548424663,3.647561,3.647561,6.379896,84.88261027791012,0.0,-0.870761222881914
mp-1178350,ErClO,True,0.01887100164664084,3.884469,3.884469,6.666856,100.59685294922868,5.1904,-3.509907089999998
mp-30274,AcBrO,True,0.01925446060044742,4.31037031,4.31037031,7.54277441,140.13940983244288,4.241,-3.396185964166668
mp-772222,TmClO,True,0.0207950020079235,3.847198,3.847198,6.698283,99.1408342220481,5.094099999999999,-3.512129933333335
mp-1246323,NbSeN,True,0.020839455924446464,3.672498,3.672498,6.378164,86.02383857732136,0.0,-0.736369001807868
mp-28065,ThNCl,True,0.02342424308073918,4.09593728,4.09593728,6.98258057,117.14467482222335,2.496299999999999,-2.420877790416663
mp-1077053,CsMnBi,True,0.02479547073533215,4.961726,4.961726,9.17174,225.79654390585128,0.0,-0.06587293764368901
mp-1245990,TaSN,True,0.025056329123170542,3.574111,3.574111,6.10376,77.97107483905371,0.46269999999999906,-1.118304784944444
mp-3718,ThTeO,True,0.025524560751146372,4.1293283,4.1293283,7.80849023,133.1453171336779,0.242399999999999,-2.994860575555552
mp-1019089,KMgAs,True,0.02596714048588451,4.55263303,4.55263303,7.73356801,160.2895460635227,1.1621,-0.6617146915833331
mp-1246457,NbSN,True,0.026018595654552334,3.592176,3.592176,6.122316,79.0007029346622,0.0,-0.974374875833333
mp-9846,RbCaSb,True,0.02695915741217977,5.38931429,5.38931429,8.52838083,247.70433532418815,1.4979,-0.8635735924999991
mp-8137,NpSO,True,0.02743093431085007,3.82610894,3.82610894,6.64239483,97.23874606065928,0.0,-2.652236148750001
mp-23024,SrBrF,True,0.028147212049665162,4.22392934,4.22392934,7.38159496,131.6993101364811,5.0036,-3.392943195
mp-8453,RbNaO,True,0.028597786701168897,4.05017426,4.05017426,6.49398464,106.52674955308318,1.985599999999999,-1.267481359626435
mp-8231,ZrSO,True,0.028801251772075584,3.59664283,3.59664283,6.36714842,82.36441096716149,0.7956000000000001,-2.821431535833333
mp-1096995,HfSO,True,0.029362376517449263,3.576540999999999,3.576540999999999,6.363122,81.39480105429915,1.0651,-2.904933095833333
mp-22951,BaIF,True,0.03091754285068717,4.70410576,4.70410576,8.00429698,177.1239742090216,4.0263,-3.146598396666661
mp-6973,CsNaS,True,0.03213093510635885,4.79937057,4.79937057,7.87704659,181.43955927976768,2.413399999999999,-1.274295310937501
mp-23023,LaBrO,True,0.03330431309314896,4.1405593,4.1405593,7.59027008,130.1293460086312,3.7256,-3.411858679999999
mp-27546,CaClF,True,0.03335643546148801,3.87646669,3.87646669,6.84262114,102.82402680601787,5.6701999999999995,-3.4642298591666663
mp-20227,NaMnP,True,0.033510710185921444,3.776096609999999,3.776096609999999,7.10894707,101.36580524377838,0.0,-0.42577371631773403
mp-23070,BaBrF,True,0.033549595594921974,4.5399233500000005,4.5399233500000005,7.49539352,154.4868364618963,4.8824000000000005,-3.422976659999997
mp-21847,KMnAs,True,0.03379973946012666,4.371867,4.371867,7.974631,152.42088522029653,0.0,-0.23700513756034502
mp-24423,SrHBr,True,0.03456922802710106,4.23942733,4.23942733,7.28807182,130.98664970380585,3.8297,-1.625272778749996
mp-12621,NdTeF,True,0.03460040049813973,4.212499,4.212499,7.660878,135.94341257929804,0.41809999999999903,-2.8701288531481453
mp-8136,ThSO,True,0.03487030067472249,3.97421556,3.97421556,6.77586343,107.0206249745882,1.114499999999999,-3.4304611374999983
mp-3263,USO,True,0.035295767050700484,3.83489513,3.83489513,6.75387456,99.32532035138462,0.0,-2.780894070833336
mp-23019,UNCl,True,0.03537819410700513,3.84964159,3.84964159,7.52403874,111.50430067158993,0.0,-2.002919315416662
mp-4233,KMnSb,True,0.036670205104877,4.669289,4.669289,8.29806,180.91645966987917,0.0,-0.24165140107471902
mp-22939,BiClO,True,0.03715169324435685,3.8933967,3.8933967,7.49318875,113.58578538575841,2.5681000000000003,-1.695745048333333
mp-989193,SnBrF,True,0.03717907630193391,4.106257,4.106257,7.898286,133.17573739740033,1.9941,-1.8203426883333331
mp-8658,CsNaSe,True,0.03721997728355979,4.9949251,4.9949251,8.1072423,202.26983185938096,2.027,-1.313769136354165
mp-975666,PrBrO,True,0.03739553173065462,4.09254153,4.09254153,7.64333531,128.01742953617972,4.462199999999999,-3.255380888888891
mp-23008,PbBrF,True,0.037741727523010554,4.18506365,4.18506365,7.66234349,134.20409005951333,2.617,-1.9919085849999942
mp-3165,RbMnSb,True,0.038178893208431826,4.762887,4.762887,8.687318,197.07261305645707,0.0,-0.17323155181034502
mp-23859,CaHCl,True,0.038951549896216055,3.8166786,3.8166786,6.90281062,100.55348759773327,3.8394,-1.7564586887499951
mp-1018949,RbMnBi,True,0.03909750313111663,4.871004,4.871004,8.83241,209.5637654163042,0.0,0.022884243189653
mp-22957,SrClF,True,0.03932105422863445,4.12962675,4.12962675,6.9766112,118.9778513429534,5.9376999999999995,-3.541261810833333
mp-20242,RbMnAs,True,0.04030073207364079,4.485616,4.485616,8.399636,169.006983602103,0.0,-0.19889377264367802
mp-6948,KNaO,True,0.04064309100609337,3.962423809999999,3.962423809999999,6.17166478,96.90008949874158,2.1322,-1.3149112078764351
mp-8751,RbLiS,True,0.04112053417844062,4.41180301,4.41180301,7.26324285,141.37180095227257,2.745,-1.344921642777777
mp-23862,BaHI,True,0.041364634565071806,4.77580877,4.77580877,7.80022709,177.91030492741652,2.811099999999999,-1.399409345416668
mp-7089,KMgSb,True,0.04209484918581917,4.8260220700000005,4.8260220700000005,8.23016661,191.68460506402158,1.267199999999999,-0.632861344083333
mp-20612,NaMnAs,True,0.04283775648469465,4.132778,4.132778,7.002112,119.59505063263028,0.0,-0.267439665603448
mp-9250,RbLiSe,True,0.04285076913989151,4.60204775,4.60204775,7.50977297,159.04830640169496,2.3089,-1.33745662939236
mp-1018739,KMnBi,True,0.04310031375358969,4.787538,4.787538,8.465375,194.03079785376147,0.0,-0.08420021660202301
mp-24424,BaHBr,True,0.043301902000504953,4.56529887,4.56529887,7.44013322,155.06691263191078,3.2113,-1.66233117208333
mp-989197,GeClF,True,0.043961061793289784,3.7654170000000002,3.7654170000000002,7.282944,103.2602396458133,2.5216000000000003,-1.361485064375002
mp-8430,KLiS,True,0.044018421397031104,4.31172379,4.31172379,6.9418714999999995,129.05606955174883,3.0571,-1.381854906027777
mp-1070860,EuHCl,True,0.044508375219874864,4.01897659,4.01897659,6.92998795,111.93436308492583,0.307999999999999,-1.7690249037500032
mp-773137,KCaBi,True,0.04504208725028577,5.40489026,5.40489026,8.45874323,247.1039017742372,0.8270000000000001,-0.856628366249997
mp-23860,SrHCl,True,0.04514741323622869,4.1068944,4.1068944,6.9852223,117.81682200616075,4.044700000000001,-1.8175602137499962
mp-8799,RbNaS,True,0.04662735115947222,4.6900175,4.6900175,7.57564858,166.63596727557243,2.2945,-1.212117723793103
mp-556382,EuClF,True,0.04678347887410742,4.08367072,4.08367072,6.97853229,116.37656244476132,0.115499999999999,-3.461556127500001
mp-5339,CsNaTe,True,0.04718637385313268,5.31929495,5.31929495,8.60440342,243.46072370294152,1.9696,-1.229981633333333
mp-27335,NaAlSi,True,0.04720586766336054,4.11019207,4.11019207,7.28815514,123.12375236083312,0.0,-0.152273453333332
mp-23432,BaClF,True,0.047496374201864866,4.41830891,4.41830891,7.280968899999999,142.1350967204861,5.4317,-3.6019593516666673
mp-22964,PbClF,True,0.048904600567393895,4.10916829,4.10916829,7.23904356,122.23316187538651,3.5519,-1.982853677499998
mp-989192,SnClF,True,0.04899428166051697,4.054978,4.054978,7.36387,121.08298464862872,2.5486,-1.7060289500000012
mp-510378,CsMnSb,True,0.049275866999540695,4.808317,4.808317,9.358489,216.3674456189022,0.0,-0.20573081306035101
mp-8756,KLiSe,True,0.04940460894239253,4.50147408,4.50147408,7.20714494,146.04031586940903,2.5249,-1.363654572642361
mp-23068,NdBrO,True,0.05106322473343361,4.02843134,4.02843134,7.89926955,128.19139265081296,4.483099999999999,-3.28379890583333
mp-20049,LiFeP,True,0.05106417304457238,3.6669254000000002,3.6669254000000002,5.82930352,78.38280810563393,0.0,-0.6519720843253971
mp-1178454,CeOF,True,0.05118257635465731,3.980336,3.980336,5.895971,93.4103088222293,0.0,-3.988052403333332
mp-1019105,KMgBi,True,0.0518177406462188,4.91295125,4.91295125,8.38724096,202.44358977636247,0.385499999999999,-0.45124566408333305
mp-754112,CeBrO,True,0.052184383659263534,4.0453449,4.0453449,8.00092767,130.93370402791302,0.0,-3.227982858333332
mp-1018736,KCdAs,True,0.052300315655331144,4.5766098,4.5766098,7.91696195,165.82359646810366,0.16560000000000002,-0.39675816824999804
mp-754149,GdOF,True,0.052642416572582194,3.93562,3.93562,5.668008,87.79236983081748,3.2028,-4.103724606666666
mp-23074,BiOF,True,0.054494750683780145,3.73599655,3.73599655,6.18163436,86.28121382746494,3.1303,-2.225987449999998
mp-4824,NaZnP,True,0.05490598095702819,4.02878405,4.02878405,6.83700378,110.97209835409217,0.9102000000000001,-0.518619665992063
mp-23861,BaHCl,True,0.055434102590044464,4.42149759,4.42149759,7.26851667,142.09689105309906,3.4827,-1.8344749187499971
mp-7400,NaAlGe,True,0.05572108959255121,4.14753367,4.14753367,7.32841864,126.06371792500674,0.0,-0.26544648666666604
mp-9934,BaMgSi,True,0.05616313880413823,4.65136956,4.65136956,7.88562819,170.6074488500834,0.0,-0.35283726000000004
mp-20639,BaMnGe,True,0.05654457446563228,4.733845,4.733845,8.142848,182.47542991356602,0.0,-0.167649457643678
mp-5962,NaMgAs,True,0.05709185395510438,4.38585587,4.38585587,7.09374208,136.45331948793782,0.9547999999999991,-0.7864752741666661
mp-4495,KLiTe,True,0.057342995868960404,4.83709739,4.83709739,7.7010359,180.18507341646608,2.4134,-1.209200204083333
mp-22152,NaFeAs,True,0.05832843345763959,3.87676772,3.87676772,7.32216623,110.04723761048047,0.0,-0.26860993295977004
mp-608254,SmClF,True,0.058761384002956475,3.652387,3.652387,8.926312,119.07638435929499,0.0,-2.8920259437777833
mp-754515,BaMgGe,True,0.05929114935170129,4.6814998800000005,4.6814998800000005,7.90789283,173.31286764289214,0.0,-0.524012354999999
mp-28066,ThBrN,True,0.06031683716372574,4.07401477,4.07401477,8.12696051,134.88801006631013,2.639599999999999,-2.263707746666666
mp-20756,LaTiGe,True,0.061673094664028365,4.15901035,4.15901035,8.28043141,143.22966177398789,0.0,-0.728003070555554
mp-8452,NaLiS,True,0.062404226151247605,4.00926097,4.00926097,6.47945416,104.15187051878621,2.264199999999999,-1.3670355740708802
mp-19737,LaMnSi,True,0.06340203564212807,4.32568132,4.32568132,7.11381349,133.11025544256233,0.0,-0.6145346348275851
mp-9915,LiBeP,True,0.0634196157875214,3.60554335,3.60554335,5.99069175,77.87865037435365,1.1585,-0.581053935992063
mp-12620,NdSeF,True,0.06350491864423552,4.03636881,4.03636881,7.15778862,116.61664749259681,0.9158000000000001,-3.229419413854167
mp-1018673,CoPPd,True,0.06359649712831408,3.58899816,3.58899816,5.79414752,74.63387994116628,0.0,-0.5929216915476161
mp-20189,SrMnGe,True,0.06384663394798445,4.478302,4.478302,7.321039,146.8248193806198,0.0,-0.266050552643678
mp-1018652,KCdSb,True,0.0640949557453875,4.84469709,4.84469709,8.28153598,194.3766754457702,0.0,-0.5163164945833331
mp-20235,CaMnGe,True,0.06429348338899006,4.020916,4.020916,7.544915,121.98441627941178,0.0,-0.35077089931034405
mp-21249,YMnSi,True,0.06436103618081936,3.899783369999999,3.899783369999999,7.29856284,110.99880865510032,0.0,-0.6427959998275881
mp-1071293,CsMnAs,True,0.06486439273174592,4.499593,4.499593,9.031088,182.8464526206467,0.0,-0.191559230028736
mp-20822,TbMnSi,True,0.06505081571251395,3.90815999,3.90815999,7.30760943,111.61434016567298,0.0,-0.638380974827588
mp-20553,GdMnSi,True,0.06517772776180628,4.02183223,4.02183223,7.311263,118.26066228946628,0.0,-0.545758339310345
mp-1077133,GdCoSi,True,0.06550672932768295,3.88857214,3.88857214,7.02150853,106.17218335365366,0.0,-0.7005903600000001
mp-20970,NaMnSb,True,0.0659617757659869,4.427575,4.427575,7.492786,146.88423378006166,0.0,-0.308379690943484
mp-1019102,SmMnSi,True,0.06611583034763178,3.971971,3.971971,7.332902,115.68792162870382,0.0,-0.506399225977011
mp-22256,NdMnSi,True,0.06650392119380144,3.97783,3.97783,7.5237870000000004,119.04987114595221,0.0,-0.5486250432806461
mp-13097,NaZnAs,True,0.0665897481447983,4.14144251,4.14144251,7.03559276,120.67129330811763,0.35759999999999903,-0.414957609626436
mp-27982,PuBrO,True,0.06694930460763353,3.93760996,3.93760996,8.3074679,128.80539732414766,0.0,-2.580650867916665
mp-19875,GdSiRu,True,0.06733899149178244,4.18692251,4.18692251,6.71304292,117.68179126449004,0.0,-0.8194931200000011
mp-20333,PrMnSi,True,0.067450766745449,3.984537,3.984537,7.647273,121.41219823719324,0.0,-0.458653333199233
mp-989196,SbClO,True,0.06778222918328664,3.791071999999999,3.791071999999999,7.916909,113.78361256736093,1.8554,-1.5609279999999992
mp-21399,CeMnGe,True,0.07015974284845759,4.058,4.058,7.226864,119.007400066496,0.0,-0.42968993597701005
mp-1077470,CaNiGe,True,0.07037818061890203,4.15426199,4.15426199,6.63787675,114.55576458491406,0.0,-0.548330649999998
mp-8653,CeSiRu,True,0.07045787733021507,4.21531163,4.21531163,6.89851435,122.57868145711267,0.0,-0.763973854999998
mp-505005,CeSiOs,True,0.07118563532419314,4.21842103,4.21842103,6.92923962,123.30634556550109,0.0,-0.6367607150000001
mp-23072,BiBrO,True,0.07123705082891278,3.92782718,3.92782718,8.39431909,129.50609729692894,2.2251,-1.555466066666671
mp-3216622,YbHCl,True,0.07184447020544295,3.368629486780478,3.368629486780478,8.652173027737494,98.18195774611304,0.0,-1.298331347083336
mp-8655,SmSiRu,True,0.07248208167693262,4.22108235,4.22108235,6.74015886,120.09302451874706,0.0,-0.8532271883333351
mp-21271,PrMnGe,True,0.07273705508581559,4.283943,4.283943,7.166429,131.51950629677842,0.0,-0.42434474986589904
mp-20842,NdMnGe,True,0.07278247132963157,4.058102,4.058102,7.563034,124.5494948226241,0.0,-0.460273871810345
mp-7090,NaMgSb,True,0.07282185790623837,4.64915576,4.64915576,7.61518133,164.59947365719816,1.0359,-0.5565706387931041
mp-504727,EuBrO,True,0.07321221678746297,3.9174707,3.9174707,8.3978194,128.87777941189123,0.0,-2.719750043333333
mp-22969,PbIF,True,0.07331304492458043,4.235855,4.235855,9.459698,169.73032469128702,2.078099999999999,-1.779874239999999
mp-20195,LaMnGe,True,0.07332311260050774,4.375786,4.375786,7.10035,135.9539737624428,0.0,-0.439826030977011
mp-29327,SmBrO,True,0.07365528393029382,3.94264325,3.94264325,8.24424913,128.15220129386657,4.5207,-3.310946965000001
mp-5239,NdSiRu,True,0.07369400379336818,4.22194715,4.22194715,6.9397861800000005,123.70056259070329,0.0,-0.8322843941666681
mp-9562,LiBeAs,True,0.07463821666574476,3.73657199,3.73657199,6.16510828,86.07705830986724,1.0077,-0.47837898361111103
mp-16236,KAgSe,True,0.07484401950071166,4.51645146,4.51645146,7.6982129,157.03071632481115,0.482199999999999,-0.811976038753471
mp-21463,PrTiGe,True,0.07551293849213671,4.13372221,4.13372221,8.10336426,138.4675277352314,0.0,-0.720598751111109
mp-754516,LiNiP,True,0.07554175044220594,3.73738,3.73738,5.800367,81.01957999292003,0.0,-0.659992634000447
mp-505331,CeMnSi,True,0.0757424092375406,4.23953295,4.23953295,6.95247113,124.96121065735225,0.0,-0.5333544631609161
mp-8654,PrSiRu,True,0.07586310403671938,4.22542975,4.22542975,7.05115053,125.89305069171868,0.0,-0.764182918888887
mp-4247,NaZnSb,True,0.07687437592929133,4.43011462,4.43011462,7.40477365,145.3254622946471,0.0,-0.40256350166666705
mp-20759,SrMnSn,True,0.07701428295367839,4.756741,4.756741,7.639743,172.86129391752897,0.0,-0.29737203097702003
mp-22973,NaMnBi,True,0.0774105530199526,4.52487,4.52487,7.785425,159.4022833446862,0.0,-0.034903479310348005
mp-1018660,CeCoSi,True,0.0775367861602309,4.0243324,4.0243324,6.84343153,110.83109314789368,0.0,-0.635787703333334
mp-21096,CaMnSi,True,0.07760215206150393,3.921729,3.921729,7.905645,121.5884908254665,0.0,-0.41233194124521305
mp-10932,ErSF,True,0.07760959429020582,3.72002033,3.72002033,6.76997952,93.68670858697239,1.324399999999999,-3.323758545381942
mp-10931,HoSF,True,0.07765363392847797,3.74383227,3.74383227,6.78733651,95.13320942562316,1.299599999999999,-3.333161717604165
mp-10930,TbSF,True,0.07811678352585065,3.7862904200000003,3.7862904200000003,6.82317797,97.817046248551,1.2587,-3.3604610242708333
mp-10086,YSF,True,0.07833703090397638,3.77298504,3.77298504,6.82666712,97.18044711174419,1.3132000000000001,-3.332084884270834
mp-3931,SmSF,True,0.07897973540081173,3.87544003,3.87544003,6.88513885,103.40814430194918,1.229699999999999,-3.317725045833334
mp-3037,UTeO,True,0.07926331458282403,3.92559589,3.92559589,8.76445752,135.06294681652045,0.0,-2.399632922222223
mp-3216725,YbClF,True,0.07930298650834398,3.4479214265961975,3.4479214265961975,8.787390526217832,104.46592357390931,0.0,-2.672345265833333
mp-1176614,LiMnP,True,0.07994477571236365,3.633248,3.633248,6.152897,81.22126165396207,0.0,-0.6230160603024081
mp-5760,NdSF,True,0.08013249378306792,3.94220416,3.94220416,6.9293486,107.68882392888213,1.2363,-3.354096816770832
mp-1205410,CuAgS,True,0.08028791120550009,3.978548,3.978548,6.206879,98.24772058665614,0.0,-0.083107833159724
mp-3799,GdSF,True,0.08061436573581562,3.83342101,3.83342101,6.85874287,100.7900264777971,0.0,-3.292370790937499
mp-3992,PrSF,True,0.08096198417715704,3.98126766,3.98126766,6.9619110200000005,110.34971618427755,1.2541,-3.3434663914930542
mp-22331,NdTiGe,True,0.08102870860641226,4.11278672,4.11278672,8.04024909,136.00093077882298,0.0,-0.7431613880555541
mp-21203,TbCoSi,True,0.08120176157244349,4.01779719,4.01779719,6.52486911,105.32896712906492,0.0,-0.7088008505555561
mp-21363,TbFeSi,True,0.08153899719350044,4.04578139,4.04578139,6.44184091,105.4422876922952,0.0,-0.6066693172222131
mp-22698,DyFeSi,True,0.08158632884436715,4.03922325,4.03922325,6.38439647,104.16349991065614,0.0,-0.610431015555548
mp-23046,SrIF,True,0.08167315457509991,4.27610854,4.27610854,8.97879985,164.1782912599705,4.3096,-3.123103805000002
mp-7433,NaCuSe,True,0.08226609102470053,4.0452141,4.0452141,6.80534228,111.36096815326336,0.04769999999999901,-0.7227659013541671
mp-995147,PbBrCl,True,0.08240484683685555,4.703055,4.703055,7.902407,174.7911778051811,3.071399999999999,-1.369031776666665