material_id,formula_pretty,is_fit,rms_A,a_A,b_A,c_A,volume_A3,band_gap,formation_energy_per_atom
mp-2272716,ErAsS,True,0.1858728482719217,3.8069359999999994,3.8210699999999993,8.477187,123.31398512565707,0.0,-1.689992994999999
mp-2275282,HoAsS,True,0.18590296266344425,3.8126070000000003,3.829227,8.483737,123.85694112226403,0.0,-1.694973186666665
mp-1018654,BaMgSn,True,0.18595665258942842,5.002261,5.002261,8.441304,211.22350103640744,0.0,-0.039376856666666
mp-2275605,TmAsS,True,0.18605435793822328,3.789845,3.800881000000001,8.415317000000002,121.22053632244328,0.0,-1.744239570937499
mp-2270157,YAsS,True,0.18607849473000776,3.835283,3.852859,8.532219,126.07893317300828,0.0,-1.691218591666667
mp-2273987,SmAsS,True,0.18656576528355895,3.8881,3.926813,8.684784,132.59790666193945,0.0,-1.714622675000001
mp-1018798,MgCuGe,True,0.1879254413068252,4.005302,4.005302,6.394753,102.58746760745412,0.0,0.057515437499998004
mp-754474,USiS,True,0.18820235079332837,3.762683,3.762683,8.004995,113.33298499578764,0.0,-1.162026596215284
mp-1018653,BaMgPb,True,0.19106479754463734,5.088415,5.088415,8.533223,220.94193013060428,0.0,0.0025709283333340003
mp-1246092,SbSeN,True,0.1977322366905552,3.781594,3.781594,9.585639,137.07898172789564,0.0,0.207284185590272
mp-1071765,USbS,True,0.19807197731476453,4.12757551,4.12757551,8.67447046,147.78590874055303,0.0,-1.2891638659375
mp-20803,USbAs,True,0.1998655822054813,4.1531728900000005,4.1531728900000005,8.65866874,149.35203547217316,0.0,-0.7482576608333361
mp-7915,ZrSiO,True,0.21550746328703962,3.31999,3.31999,7.351845,81.03448816622719,0.0,-1.969664193333334
mp-1071360,FeSeN,True,0.24511105889520407,3.584383,3.584383,6.908508,88.75913938083688,0.0,0.8342455292187501
mp-777546,NaSnO,True,0.2720133865408932,4.343088,4.343088,6.520905,123.00000569395591,0.0,-1.348088182126436
mp-23856,LiHO,True,0.27975131955201543,4.92798156,4.93579158,4.27946589,104.0915453110559,4.0057,-1.778912719861109