material_id,formula_pretty,is_fit,rms_A,a_A,b_A,c_A,volume_A3,band_gap,formation_energy_per_atom
mp-1221790,Mn2TeSe,True,0.07278950815439385,3.9180741138746327,3.9180741138746327,19.43687501489375,258.4058654633888,0.0,-0.7363719661233821
mp-1246960,HfMnN2,True,0.07281136890367615,3.1497840788241485,3.1497840788241485,13.739612965267769,118.05019198954156,0.0,-1.159891920339447
mp-1227049,CaMgS2,True,0.07382615799313764,3.8618267836121545,3.8618267836121545,18.874058251852325,243.77069937329537,2.9192,-2.003960714999999
mp-10226,NaYS2,True,0.07396497632031063,3.975520649188188,3.975520649188188,19.80257934697099,271.0443888478385,2.263499999999999,-2.13529353640625
mp-999490,NaDyS2,True,0.0742087040623681,3.967093446078795,3.967093446078795,19.779183690000103,269.5776335194414,2.285599999999999,-2.134546867656251
mp-1220446,NbVN2,True,0.07468123134754709,3.0474058792646876,3.0474058792646876,14.853668312620755,119.46067259506492,0.0,-1.072786006875
mp-8584,NaErSe2,True,0.0748387381550268,4.0815849450739785,4.0815849450739785,20.761747754563217,299.53820346964005,1.9258000000000002,-1.982204590364581
mp-999126,NaTbS2,True,0.07557925881746334,3.9892963437019597,3.9892963437019597,19.780760790000258,272.6253402554834,2.279099999999999,-2.131943001406249
mp-1245745,MgTiN2,True,0.0757574499876877,3.0124432184754344,3.0124432184754344,14.957639730000032,117.55238356538759,0.36500000000000005,-1.484522464583333
mp-755426,NdSmO2,True,0.0758045057855711,3.525637466408167,3.525637466408167,17.58538698853525,189.30316150308704,0.0,-3.097525098124999
mp-1220725,Nb2CN,True,0.07609478771790801,3.17683003277056,3.17683003277056,15.569895298826161,136.08312798527223,0.0,-0.8307933220833341
mp-2210657,MgTiO2,True,0.07613191258800793,2.9023608282240674,2.9023608282240674,15.882507384140515,115.86506391136737,0.0,-2.8091118195833333
mp-754542,LiVS2,True,0.07657830368415448,3.5045761607690133,3.5045761607690133,17.945298080648207,190.8764341425562,0.0,-1.3173068995833321
mp-999474,NaHoSe2,True,0.0767972476018793,4.098760344517762,4.098760344517762,20.7781075500002,302.30245431223346,1.8867,-1.9887348307812511
mp-27682,NaSnS2,True,0.07690208444090506,3.906716488349808,3.906716488349808,20.557128767511525,271.7170425287165,0.0,-0.812001042656257
mp-754537,LiLuO2,True,0.07705352416601692,3.2738356645046918,3.2738356645046918,15.097579423140289,140.1366417071274,4.8139,-3.317419835
mp-25372,LiCuO2,True,0.07708074109594489,2.943694276695089,2.943694276695089,14.335715542640102,107.58095954040817,0.0,-1.382593593333333
mp-1215167,ZrWC2,True,0.07709865448452116,3.2019456230772185,3.2019456230772185,15.75939784394445,139.92591501966038,0.0,-0.476254043749999
mp-8260,NaGdS2,True,0.07712185710813038,4.020110533482038,4.020110533482038,19.816624598588835,277.355193472798,1.762,-2.086529238906248
mp-14115,LiRhO2,True,0.07726301851796091,3.0402293590714393,3.0402293590714393,14.041680872092838,112.39899483951311,1.515299999999999,-1.555824928333332
mp-1215454,YbSmS2,True,0.07729933119205533,3.873255584970542,3.873255584970542,19.47500045701704,253.02324415861182,0.0,-2.23518534515625
mp-1216799,TiNbN2,True,0.07735584061352994,3.064533677258418,3.064533677258418,15.225512637251004,123.83156237992111,0.0,-1.508922743541665
mp-1215188,ZrTiN2,True,0.07736831407519686,3.147824248240352,3.147824248240352,15.354455412655996,131.76073303534696,0.0,-1.905127244791666
mp-25467,LiWO2,True,0.07747324403068707,3.2623320498837938,3.2623320498837938,14.695373617627858,135.4464382977236,0.0,-1.749117898333333
mp-1217074,Ti2HC,True,0.07753399725137403,3.0965594936767635,3.0965594936767635,14.38464092712119,119.45064908120392,0.0,-0.750478473020832
mp-867722,PrNdO2,True,0.07794304021750373,3.5799716897731186,3.5799716897731186,17.722196413342363,196.70135958718353,0.0,-3.055129702291665
mp-1215176,ZrUS2,True,0.07868310343117701,3.7651298176642976,3.7651298176642976,19.086721167657362,234.32675068357278,0.0,-1.663419223749997
mp-999488,NaDySe2,True,0.07904111894750294,4.116627860194909,4.116627860194909,20.748484620000124,304.5090698651551,1.8635000000000002,-1.992658823281249
mp-29656,AgBiTe2,True,0.07920422188271747,4.4376334352342575,4.4376334352342575,21.10924057106309,360.00297621034855,0.0,-0.18614019312500502
mp-777047,LiTmO2,True,0.07935248091517046,3.313729692902304,3.313729692902304,15.132187860701869,143.90189550811775,4.6558,-3.2787756283333342
mp-1216653,UNbC2,True,0.07936375655326114,3.2759647625265145,3.2759647625265145,16.759724713818947,155.76717942520122,0.0,-0.508671231250001
mp-1217025,TiAlN2,True,0.07964849220870111,2.9223459476077602,2.9223459476077602,14.727379155194246,108.92293933705052,0.0,-1.604228798541665
mp-1222918,LaCeN2,True,0.07974283174028765,3.653590296830229,3.653590296830229,17.9810704424043,207.86715139281714,0.0,-1.670386978124998
mp-999448,NaYSe2,True,0.08008034136697594,4.123714778678401,4.123714778678401,20.766477660000124,305.823397893424,1.8434,-1.99745390453125
mp-1176669,LiHoO2,True,0.0801090786484439,3.354732031285733,3.354732031285733,15.167367923857887,147.8279397648113,9.999999999998901e-05,-3.2188001370833312
mp-1218978,SmTmS2,True,0.0805210038978545,3.883773807119833,3.883773807119833,19.500573995068294,254.7333948476843,0.0,-2.228142130000002
mp-1215182,ZrTiC2,True,0.08075847206704788,3.2198076515582414,3.2198076515582414,15.646896881664972,140.48136172890221,0.0,-0.926014017916665
mp-19419,LiFeO2,True,0.08078355318712564,2.9425050105887633,2.9425050105887633,14.442147334765687,108.29211231515086,1.6720000000000002,-1.870063350833333
mp-1007910,NaEuS2,True,0.08079252132164104,4.116215398153962,4.116215398153962,19.527166320000106,286.52732346412114,0.0,-1.7498752726562499
mp-1220883,NaSbTe2,True,0.08081909754150428,4.401092918715644,4.401092918715644,22.687015704876845,380.5652055259161,0.658899999999999,-0.6497960136781591
mp-999127,NaTbSe2,True,0.08086924678477969,4.135098339999402,4.135098339999402,20.7787327200001,307.695661697989,1.839,-1.931277130683368
mp-578601,NaNbO2,True,0.08088591301807854,2.9825316394754307,2.9825316394754307,17.737537932245385,136.64510788545044,0.0,-2.323842492844827
mp-1219668,PuUN2,True,0.08101912530998905,3.4481352390775033,3.4481352390775033,17.307087539813946,178.20636180558319,0.0,-1.673681955312496
mp-1224333,Hf2HC,True,0.08105220753143068,3.291289729118758,3.291289729118758,15.535241811061844,145.74070911425332,0.0,-0.740120262187499
mp-1215247,ZrTaN2,True,0.08111319631881159,3.194442344355487,3.194442344355487,15.605506768236815,137.91090747749524,0.0,-1.528825428291668
mp-1215218,ZrMoC2,True,0.0811350200283967,3.201442094570428,3.201442094570428,15.75705650306722,139.86112784451234,0.0,-0.49345845218750006
mp-1220365,NbVC2,True,0.08118079101749849,3.086463520518102,3.086463520518102,15.02250717682671,123.93539307206673,0.0,-0.46028901576389103
mp-1224815,GaCuTe2,True,0.08120743518139857,4.04394418510258,4.04394418510258,19.70650802205142,279.09407175247946,0.0,-0.15811368249999802
mp-1216616,V2CN,True,0.08156152081637418,2.9345503747243544,2.9345503747243544,14.360882430179037,107.10133802020003,0.0,-0.8440022555555511
mp-1227311,BaSrO2,True,0.0818071069059261,3.821162537458293,3.821162537458293,18.770963626321585,237.36037662164424,2.567199999999999,-2.923456599999999
mp-999455,NaSmS2,True,0.08218576766179853,4.060615341666929,4.060615341666929,19.85844438000013,283.5695270001383,2.2312,-2.056927842844827
mp-999489,NaGdSe2,True,0.08231014726048726,4.170707572876919,4.170707572876919,20.73703606903751,312.38976463230557,1.3585,-1.959023429531249
mp-1217291,TePb2Se,True,0.08274341740309579,4.494198181374457,4.494198181374457,22.004989368312476,384.9073764438976,0.6213999999999991,-0.57963589476563
mp-1215482,YbAgS2,True,0.08297051793515967,3.9196962466872747,3.9196962466872747,18.683375434000904,248.59408944269043,0.0,-1.51291467640625
mp-20162,InAgS2,True,0.08303939405454777,3.8220224196698935,3.8220224196698935,19.399101701672297,245.41364853696908,0.108699999999999,-0.46991981390624904
mp-1221073,NaCeS2,True,0.08320497583251181,4.16993967052849,4.16993967052849,19.8085181046247,298.29238186110706,0.0,-2.08512531390625
mp-1215915,YScS2,True,0.08382389694297795,3.8007725095251015,3.8007725095251015,18.626985034446623,233.03274437604367,0.0,-2.147222582656251
mp-1215898,YScN2,True,0.0841873530885366,3.3440542195077296,3.3440542195077296,16.343475776561515,158.27840897886784,0.0,-1.911787781250001
mp-1080243,MgMnO2,True,0.08483802011927949,3.0550047454136338,3.0550047454136338,15.034424042937113,121.51816571064282,1.9842,-2.4954557507327593
mp-1224336,Ge2TeSe,True,0.08506524366330505,4.120716083617323,4.120716083617323,20.170317960695662,296.6120303033877,0.24659999999999901,-0.352449539752603
mp-1216540,TmAgS2,True,0.08524394783884544,3.9763141376814004,3.9763141376814004,18.55700722607851,254.09723731230758,2.1628,-1.497611406562502
mp-1220879,NaSbSe2,True,0.08541358834810707,4.116624459433353,4.116624459433353,21.031527413473373,308.66255471662157,0.6374999999999991,-0.727243492031249
mp-19340,LiVO2,True,0.08567606722798106,4.980285309386172,2.9002151145759427,5.11379567188662,70.17774482763338,0.0,-2.493781042083334
mp-999470,NaNdS2,True,0.08575016384411001,4.121989076352577,4.121989076352577,19.846926810000127,292.03679453968095,2.2045,-2.069895253281249
mp-1223922,Hg2TeSe,True,0.08585990829308579,4.225580327748355,4.225580327748355,20.718200926255157,320.37262248721964,0.0,-0.053260096015627006
mp-1215219,ZrTaC2,True,0.08589422191096512,3.2325517641502843,3.2325517641502843,15.919415702513977,144.0617650829148,0.0,-0.8934442380833331
mp-1178453,CePrO2,True,0.08593100104133132,3.575183858119814,3.575183858119814,17.41571430063691,192.7829781141581,0.0,-3.129183055416666
mp-999450,NaSmSe2,True,0.08614100273587606,4.2107339047551395,4.2107339047551395,20.8050640200002,319.45911392471436,1.8016,-1.976580612031249
mp-1220912,NaPrS2,True,0.08616086729020209,4.156009004061353,4.156009004061353,19.979147681813757,298.8550152703939,2.1807,-2.051143069322915
mp-1222404,LiBiS2,True,0.08641360370979403,3.9592339539436843,3.9592339539436843,18.87256372656762,256.20279469240006,1.4793,-0.9862570745833321
mp-1220714,NaLaS2,True,0.08645497311933863,4.217042205464473,4.217042205464473,19.85146753663663,305.7307662309519,2.5989,-2.124674545156249
mp-1226740,CdSnTe2,True,0.08656535334401715,4.48397400922357,4.48397400922357,21.322853447448654,371.2804885652092,0.0,-0.309640977500002
mp-1224247,HfZrN2,True,0.08665119320021314,3.2127534339596817,3.2127534339596817,15.829822463583708,141.50163850165026,0.0,-1.990641963125003
mp-1223647,InGeTe2,True,0.08673593408701785,4.3424476251898545,4.3424476251898545,21.305712427213432,347.9331994561923,0.0,-0.264860332857143
mp-4483,AgAsSe2,True,0.08677658557914887,3.9253738585983715,3.9253738585983715,19.73035272742913,263.285858394734,0.0,-0.30125162846354103
mp-1221701,MnVS2,True,0.0875589375834941,3.6819757203164722,3.6819757203164722,16.711595221983085,196.20513993226655,0.0,-0.800217640732759
mp-1216529,Tm2SbTe,True,0.0876162420362392,4.311373860584875,4.311373860584875,21.134590742251657,340.2168684253546,0.0,-1.31969964166667
mp-754344,LiZnO2,True,0.08765835270450233,3.0010419198719127,3.0010419198719127,14.517232802352927,113.22924117157584,0.0,-1.629533893333333
mp-1001784,LiTiS2,True,0.08804293926566756,3.512143370238186,3.512143370238186,18.196161300000284,194.38147880078571,0.0,-1.673881300416666
mp-1225516,ErAgS2,True,0.08823719435368416,3.988793874443687,3.988793874443687,18.56312108134592,255.77896022924506,2.1143,-1.529725259166665
mp-1224191,HfWC2,True,0.08834608235003431,3.1761580563528313,3.1761580563528313,15.639215343191903,136.63117521587196,0.0,-0.5353001225
mp-1224419,HfNbN2,True,0.08836963849714997,3.178906199693294,3.178906199693294,15.617805377498497,136.68034454239063,0.0,-1.559520341875003
mp-1221385,Na2BrCl,True,0.08852087378710585,4.0720489106092925,4.0720489106092925,19.974351490666148,286.8331162325426,4.223,-1.961779251939655
mp-1217932,TaNbN2,True,0.0886330085793957,3.1440164006602016,3.1440164006602016,15.336210606641067,131.28596517910438,0.0,-1.053350362041669
mp-999491,NaCeSe2,True,0.08871289462886389,4.3014103696936425,4.3014103696936425,20.731452890000334,332.18661283636476,0.0,-1.864828621516701
mp-1224274,HfTiC2,True,0.08872238890050269,3.1937538921577033,3.1937538921577033,15.47996099003951,136.74245952633262,0.0,-0.9986992166666651
mp-1217822,TaVC2,True,0.08885023946141626,3.0805781846210243,3.0805781846210243,14.912427507220983,122.55850321816303,0.0,-0.546011880201387
mp-1222713,LaUS2,True,0.08894226865768975,3.991208166561419,3.991208166561419,20.57088716265686,283.7869449751044,0.0,-2.052969036406253
mp-755389,CaEuO2,True,0.08901510884267068,3.5050077038940888,3.5050077038940888,17.29061893226731,183.95818877445336,0.0,-3.181973046250001
mp-1223311,KRbCl2,True,0.08921162804550552,4.557573713745405,4.557573713745405,22.399464431931943,402.93562763210247,4.9089,-2.2433230486875
mp-1003402,CaMnO2,True,0.08932452602941318,10.84744970195179,3.3091173617546414,5.738929875876337,202.74174167365192,2.1657,-2.622401234482758
mp-27916,AgBiSe2,True,0.08955026481734572,4.1717215669647825,4.1717215669647825,19.75476391,297.7372033517719,0.23409999999999903,-0.32030861244791703
mp-1224527,GdUN2,True,0.08980994149822005,3.4644941968866614,3.4644941968866614,17.37687032532568,180.62666705218632,0.0,-1.716106133124995
mp-1222851,LaGdN2,True,0.08997180789926357,3.6376739365371926,3.6376739365371926,17.891279663072318,205.031020288741,0.0,-1.663228306874998
mp-1222697,LaSmS2,True,0.09034153915720035,4.074397481810822,4.074397481810822,20.05476402574075,288.3201381700424,0.0,-2.347652558750001
mp-12360,AgSbTe2,True,0.09035821552668376,4.37451809307168,4.37451809307168,20.886749985731573,346.1480857183197,0.0,-0.291437181249998
mp-999447,NaSmTe2,True,0.09045342234993273,4.494325786176798,4.494325786176798,22.49224722,393.4527463181624,1.1738,-1.589257677500001
mp-1223648,K2BrCl,True,0.09053450264004508,4.561266783939313,4.561266783939313,22.399303951406374,403.58601023869386,4.487,-2.129546822374999
mp-1219144,Sm2AsSe,True,0.09065106974022981,4.186797289304663,4.186797289304663,20.56869720898759,312.24916474190064,0.0,-2.007649560390625
mp-1221102,NaBiTe2,True,0.09078279711024125,4.481605181090844,4.481605181090844,22.75485533127894,395.79645269558415,1.065299999999999,-0.650204346250003
mp-25417,LiTiO2,True,0.09093092861413858,2.916431981922517,2.916431981922517,15.035366523002391,110.75117830027153,0.0,-2.957393104166666
mp-1215827,YbGdTe2,True,0.09106703458670705,4.329092884230281,4.329092884230281,21.334150852296016,346.2579882347258,0.0,-1.445978933750005
mp-999471,NaNdSe2,True,0.09139555190461429,4.266642009617511,4.266642009617511,20.792243850000023,327.7965677202212,1.8121,-1.964508348906246
mp-1215700,YZrS2,True,0.0914751744543068,3.856482079730824,3.856482079730824,18.287519686187135,235.5418455600544,0.0,-1.8972238237499992
mp-1219429,Sc2CO,True,0.09158602387532352,3.242778325378221,3.242778325378221,15.870191876174546,144.52644903535594,0.0,-2.068808289999999
mp-1216688,U2AsS,True,0.09160389262481021,4.159122537779998,4.159122537779998,18.83975221096811,282.2339474128829,0.0,-1.479693656328123
mp-1226534,CeNdN2,True,0.09176668770012636,3.6135633725896823,3.6135633725896823,17.711471425886796,200.28878202129837,0.0,-1.707487596250001
mp-1216248,VWC2,True,0.0919033891955461,3.03408223257387,3.03408223257387,14.801679578852259,118.00389019148314,0.0,-0.143211153368056
mp-999472,NaLaSe2,True,0.09225468757456462,4.373467334175715,4.373467334175715,20.620552770000003,341.572351054278,2.2767,-1.978805695266703
mp-1221125,NaBiS2,True,0.09261796697125974,4.038025313634785,4.038025313634785,20.233535406797834,285.71989355285046,1.446899999999999,-0.8714844376562491
mp-1215222,ZrNbC2,True,0.0927848288869433,3.250224921826517,3.250224921826517,15.96805281606108,146.08627798655905,0.0,-0.8117210587500021
mp-999461,NaPrSe2,True,0.09284399839264112,4.303160475141688,4.303160475141688,20.790608580000022,333.405621675248,1.7927,-1.952799964947917
mp-1218975,SmYS2,True,0.09298106498779293,3.942409611729304,3.942409611729304,19.504560490979753,262.5368621053576,0.0,-2.2483487075
mp-1225299,Eu2SeS,True,0.09314478743513602,4.249008590368432,4.249008590368432,20.842343237619897,325.87601257630837,0.0,-2.386894502968751
mp-2210614,MgVS2,True,0.09327932094185656,3.6607967111950668,3.6607967111950668,17.708137907328684,205.52031288880963,0.21579999999999902,-1.241197312499999
mp-1001783,LiSnS2,True,0.09336885085526496,3.8020516772922743,3.8020516772922743,18.91571269446203,236.80418409225592,0.0,-0.9605306033333331
mp-1225749,CuNiO2,True,0.09338005461182038,2.9858877532167782,2.9858877532167782,14.647334007831459,113.09311641755502,0.0,-0.9354146349999991
mp-1221101,NaBiSe2,True,0.09341030599158666,4.195551491404389,4.195551491404389,21.14924113626969,322.40630892337697,1.092299999999999,-0.8608535732812501
mp-1227235,CaCdS2,True,0.09351740846008813,4.002409644113156,4.002409644113156,19.0951200867761,264.9086249158927,2.2388999999999992,-1.5482983012499991
mp-1219726,PrUS2,True,0.09355426993574512,3.9755173103778834,3.9755173103778834,20.319233217073428,278.11553242462895,0.0,-1.994162975572919
mp-1224240,HfUC2,True,0.09356988388173572,3.350954905751927,3.350954905751927,16.908862847693147,164.43043291087733,0.0,-0.6928637562499981
mp-1219926,Pb2SeS,True,0.09407162708458482,4.296691790050147,4.296691790050147,21.04666439621195,336.49786396054225,0.45179999999999904,-0.786097169960936
mp-1216691,TiVC2,True,0.09431705162947177,2.997403967936587,2.997403967936587,14.734798036230051,114.64770750555414,0.0,-0.7425095625347221
mp-1224285,HfTaC2,True,0.09473407223366338,3.207010577234649,3.207010577234649,15.775883986663336,140.51578701731646,0.0,-0.9431467493333371
mp-1221939,MgZnO2,True,0.09494077307277396,3.043627985729941,3.043627985729941,14.839410251077904,119.05027711779894,9.999999999976698e-05,-2.344368486249999
mp-1216056,Y2PS,True,0.09502781886468162,3.9677296804861353,3.9677296804861353,19.414103346830164,264.686701165675,0.0,-2.122971735197172
mp-1218913,SmYSe2,True,0.09529555454644463,4.092346292759958,4.092346292759958,20.427792845367552,296.27624355150675,0.0,-2.045016442031251
mp-1222303,LiNdS2,True,0.09552705095050396,4.057258141071923,4.057258141071923,18.56845744439552,264.7108478668792,1.828,-2.025704156458332
mp-29678,AgBiS2,True,0.09556995583345343,4.049744403986544,4.049744403986544,19.10906993728507,271.40972783956926,0.5212,-0.28982440932292103
mp-1218707,Sr2SeS,True,0.0956261973968789,4.356305738194514,4.356305738194514,21.366517429003906,351.15679575925475,2.2889,-2.382859880468748
mp-1218952,SnPbS2,True,0.09574220183694016,4.192873595259799,4.192873595259799,20.559960403650244,313.02314099950075,0.0019000000000000002,-0.7108895149999981
mp-1001786,LiScS2,True,0.0959030704944509,3.6908848201747424,3.6908848201747424,18.14665740000014,214.08599458966285,1.4856999999999991,-2.020776623333332
mp-1227261,CaEuS2,True,0.0966803580829108,4.105259884426464,4.105259884426464,20.125932774494164,293.7432937254379,0.0,-2.427305252656252
mp-1218971,SmThN2,True,0.09671864257700599,3.630565031762664,3.630565031762664,17.645151205428764,201.42086500913996,0.0,-1.800763786875002
mp-19338,LiMoO2,True,0.09672233733157914,2.7692701576901118,2.7692701576901118,16.049502447135133,106.59156933586159,0.0,-1.961930820833333
mp-1218938,SnPbSe2,True,0.0969067217209706,4.314623403243543,4.314623403243543,21.134155499972213,340.7228971668939,0.0,-0.536617704531249
mp-1218924,SnTe2Pb,True,0.09709855998958249,4.564411985486551,4.564411985486551,22.37584192899398,403.7194670264411,0.4107,-0.37956456999999905
mp-1215765,YUS2,True,0.0972552923987392,3.868052480467637,3.868052480467637,19.895013013345707,257.78614670534915,0.0,-1.985683050156247
mp-1007685,InAgSe2,True,0.09740115353754625,4.011078020426554,4.011078020426554,19.95735362206307,278.0710671438965,0.0,-0.43234455703125