material_id,formula_pretty,is_fit,rms_A,a_A,b_A,c_A,volume_A3,band_gap,formation_energy_per_atom
mp-999138,SmTlS2,True,0.02963515181595222,4.113385705120901,4.113385705120901,22.44591846,328.9022780701232,1.6781000000000001,-1.714360570833327
mp-1006888,KYS2,True,0.029705105733911455,4.044677069628012,4.044677069628012,21.940517190000026,310.845939172413,2.3221,-2.173502057343748
mp-7176,RbLaSe2,True,0.029720530272433078,4.465726487187419,4.465726487187419,23.815169993623748,411.3093272526798,2.32,-2.041494886796875
mp-3332,NaCrSe2,True,0.029734552404580464,3.757760781135729,3.757760781135729,20.29866218527898,248.2311656534637,0.780799999999999,-1.039510734016702
mp-1101447,NdYO2,True,0.02977173868373118,3.4584873598324744,3.4584873598324744,17.78709298051624,184.25021041475534,0.0,-3.143132111875
mp-569178,HoTlSe2,True,0.030110419667831463,4.147043434316395,4.147043434316395,23.214079470073024,345.7476735599027,1.2588,-1.605807920781245
mp-10989,KYbSe2,True,0.03056142407608447,4.125713918599962,4.125713918599962,22.76424349400137,335.56918604881844,0.0,-2.027003406718748
mp-10778,RbPrSe2,True,0.030760197075618775,4.399986695589729,4.399986695589729,23.914510331226026,400.95427753432466,1.8997000000000002,-1.955156013463541
mp-999129,KTbS2,True,0.03087181506653019,4.057545951190608,4.057545951190608,21.927024570000118,312.6347352831009,2.3136,-2.17153049234375
mp-754541,TmTlO2,True,0.031389055552053576,3.4444348274502157,3.4444348274502157,19.540932982276665,200.77603373391187,1.3066,-2.760831665833336
mp-13314,ScTlTe2,True,0.03153691880408863,4.273804925719027,4.273804925719027,24.219501051104942,383.11152260256523,0.044599999999999,-1.133194870416661
mp-19391,NaVO2,True,0.031941312597099245,2.9965110860160324,2.9965110860160324,16.010238988168215,124.49738345156132,0.0,-2.340843991594829
mp-568062,DyTlSe2,True,0.03197651366489024,4.164398249826891,4.164398249826891,23.190328644263257,348.2908342839652,1.233199999999999,-1.611610018281247
mp-1067744,YTlSe2,True,0.03200962632080245,4.175511964158593,4.175511964158593,23.18003202,349.99684386325424,1.231399999999999,-1.616571717031249
mp-578610,NaMoO2,True,0.03206097750788232,3.233550796070319,3.233550796070319,15.657950429619918,141.7832479621156,2.380499999999999,-1.888169442844827
mp-15784,KGdS2,True,0.03219126421955862,4.090330012559927,4.090330012559927,21.980620800000096,318.4837537710136,1.8308,-2.130047177343748
mp-999269,RbSmTe2,True,0.032480289002357166,4.5962600665577655,4.5962600665577655,25.522925130000164,466.9498780350352,1.316399999999999,-1.609176243958335
mp-8145,RbScO2,True,0.032723942185111425,3.25849265525805,3.25849265525805,19.234537044479577,176.8666142762521,3.3013,-2.997647701874998
mp-19359,NaFeO2,True,0.032847967224233963,3.0180059891252995,3.0180059891252995,16.011164151091975,126.29720405253642,1.9918999999999991,-1.797874432844827
mp-1018137,KEuS2,True,0.03320021889663715,4.20149674378748,4.20149674378748,21.702742350000097,331.7823728975776,0.0,-1.798971391093751
mp-754992,LuTlO2,True,0.03380935145369605,3.405984017185415,3.405984017185415,19.51849619226794,196.0930481083555,1.212899999999999,-2.779798667500002
mp-3664,NdTlS2,True,0.033810594343997157,4.172315455786859,4.172315455786859,22.431706262593426,338.1794506707358,1.6456,-1.699453493958322
mp-569507,TbTlSe2,True,0.03403049973234922,4.182593271577808,4.182593271577808,23.177226088272743,351.1424685212022,1.2548,-1.6180324311718661
mp-1221540,Mn2SeS,True,0.034685250145917564,3.442957998246711,3.442957998246711,16.528270002234716,169.6764150437739,0.0,-0.715804367710129
mp-4240,RbCeTe2,True,0.0348870519638871,4.709275939165315,4.709275939165315,25.45902249697418,488.9682202409834,0.0,-1.5696825052083332
mp-7914,NaScO2,True,0.035067059948819285,3.1625814166058586,3.1625814166058586,16.167917775054764,140.04517573926503,3.979999999999999,-3.190776871594827
mp-7240,NaRuO2,True,0.03539792351685693,3.1170598936142513,3.1170598936142513,15.99606177055152,134.59657187067162,0.0,-1.412723410344827
mp-569393,GdTlSe2,True,0.03571896442370823,4.215559085652317,4.215559085652317,23.175860280276375,356.67843897699333,0.444399999999999,-1.583077544531249
mp-11178,SrCeN2,True,0.036143877683193625,3.639646607613101,3.639646607613101,17.964927969452294,206.0983654627663,1.267999999999999,-1.424325386874997
mp-15783,KSmS2,True,0.03681540846170846,4.133890772832996,4.133890772832996,21.9801440150981,325.29632733013653,2.2759,-2.104493069312499
mp-5808,RbNdTe2,True,0.03688016484738502,4.643933615090383,4.643933615090383,25.571791508570843,477.59942180869797,1.299399999999999,-1.615319384583331
mp-10224,NaVS2,True,0.037058065561432235,3.5986020207350258,3.5986020207350258,19.38316409367589,217.38168114567944,0.0,-1.261412239094827
mp-1219685,PuUC2,True,0.03817192226245842,3.5734057348442567,3.5734057348442567,17.17769882658611,189.95917548958684,0.0,-0.3628361909375
mp-1007900,EuTlS2,True,0.03843877117291488,4.191988353285631,4.191988353285631,22.00586891732088,334.89548159856656,0.0,-1.429891930833336
mp-9263,KErTe2,True,0.03893107225987932,4.454602998756176,4.454602998756176,24.48065650338662,420.6992154140972,1.3304,-1.634075416770834
mp-7329,KCeS2,True,0.03921579062628154,4.2358373682044785,4.2358373682044785,21.97522971368239,341.46218101835103,0.0,-2.145547009843749
mp-755311,NaLuO2,True,0.03949141420957083,3.2940275244782895,3.2940275244782895,16.351809420000034,153.65648564742867,4.061,-3.240658954511494
mp-1017508,LuTlTe2,True,0.03954421385950092,4.374986306199004,4.374986306199004,24.398101650000086,404.42692756992335,0.7908000000000001,-1.21342858833333
mp-3567,NaVSe2,True,0.03970440090431587,3.763054567875427,3.763054567875427,20.31163454223826,249.09014053681122,0.0,-1.087406231516702
mp-7002,NaTiO2,True,0.04009340244329982,3.0131829000685397,3.0131829000685397,16.19713646953821,127.35613226862384,0.0,-2.782783946178161
mp-999137,SmTlSe2,True,0.04070631025372422,4.257916015930584,4.257916015930584,23.165444820000022,363.7185555755833,1.221899999999999,-1.6138808707552
mp-755219,ScTlO2,True,0.04093924765356405,3.268467908517078,3.268467908517078,19.44050610280838,179.85671170275742,0.8223,-2.680238327083334
mp-1006885,KNdS2,True,0.04163374669861752,4.189307228440187,4.189307228440187,21.989567580000095,334.21946757408114,2.2595,-2.12713226921875
mp-1221803,MnGeTe2,True,0.04197739571453819,4.001176084774636,4.001176084774636,19.54455558200864,270.97658170216823,0.0,-0.131952489066091
mp-1017514,MgSiN2,True,0.04198292470100044,2.8515253873030835,2.8515253873030835,14.68891277370854,103.43672667918167,4.179699999999999,-1.06345314625
mp-752924,NaYbO2,True,0.04207905904882443,3.312604529947478,3.312604529947478,16.35201432881299,155.39644296335175,0.0,-3.191410233124999
mp-15781,KLaS2,True,0.04216688699069013,4.291318621470166,4.291318621470166,21.903887075312923,349.32795854028996,2.7005,-2.19070340609375
mp-1245796,CaReN2,True,0.042356168924621726,3.1555998226515483,3.1555998226515483,16.213326507576106,139.81913350440232,0.0,-0.564560890625
mp-1008561,TmTlTe2,True,0.04260467150213087,4.405909462826838,4.405909462826838,24.377232390000174,409.813410928333,0.743599999999999,-1.2342258841666611
mp-16763,KYTe2,True,0.04274523184940118,4.495359508416277,4.495359508416277,24.50106914842708,428.7898795942583,1.2981,-1.602569402645834
mp-754825,NaTmO2,True,0.04285291163402696,3.332241091594244,3.332241091594244,16.37986716,157.51206972304604,4.0764,-3.210119355344829
mp-11601,NaErO2,True,0.04292682360605999,3.355707571002811,3.355707571002811,16.44749521339911,160.39787705060724,4.0684,-3.178125172219825
mp-1006891,KSmSe2,True,0.04301536630952494,4.283605960429323,4.283605960429323,22.867915950000114,363.3927407065869,1.8906,-1.981793024234375
mp-867735,PrSmO2,True,0.04341721971580226,3.538835933940425,3.538835933940425,18.01887820223901,195.4246030294556,0.0,-3.092887266666666
mp-1097040,LiCoF2,True,0.0436145687278123,2.8702039646166257,2.8702039646166257,16.510180461420827,117.78987799565797,0.0,-2.061829768333333
mp-15782,KPrS2,True,0.04375269778994184,4.2219870664947186,4.2219870664947186,22.038850122207176,340.21492372612545,2.2688,-2.111774870260417
mp-554310,TlBiS2,True,0.04380876905173672,4.123046531532323,4.123046531532323,22.221978364825972,327.1521843996484,0.49490000000000006,-0.6623738170833361
mp-1007907,ErTlTe2,True,0.044103938315412525,4.413525272432288,4.413525272432288,24.485284860000043,413.0541863526759,0.8205999999999991,-1.243756399166658
mp-1029359,CaHfN2,True,0.044647199793598144,3.274843576165988,3.274843576165988,16.76093588030995,155.67182527613355,0.543299999999999,-1.875544676875002
mp-568588,NdTlSe2,True,0.04492390324535444,4.315014606003185,4.315014606003185,23.132754294726283,373.0117538283508,1.2255,-1.608457378880201
mp-20420,KGdTe2,True,0.045612676752958645,4.526157112849189,4.526157112849189,24.56323227655583,435.78813038717806,0.8263,-1.6464385659375012
mp-1007663,HoTlTe2,True,0.0464783861455366,4.432320326402243,4.432320326402243,24.403184350000107,415.18285556096413,0.7305,-1.250518345416658
mp-1225678,CuBiSe2,True,0.046627614607877614,4.06196033532756,4.06196033532756,19.1349557696719,273.4194786571901,0.0,-0.21344164046874703
mp-1218182,SrMgO2,True,0.046739689529400975,3.3564936310147684,3.3564936310147684,16.56453734764898,161.6149741153096,3.4141999999999992,-2.857377783749999
mp-1223443,KBiS2,True,0.04685103601023275,4.125924958087792,4.125924958087792,22.17960494687824,326.98444080659334,1.4158,-0.9206185710937511
mp-1101151,NaHoO2,True,0.04728555228037406,3.3756635911606505,3.3756635911606505,16.383480052221472,161.67955588819854,4.0758,-3.154525666594825
mp-613052,Eu2PBr,True,0.047527213630246305,4.332575641395871,4.332575641395871,21.61662852765988,351.4073966329981,0.0,-1.7022517449107162
mp-1216673,U2CS,True,0.04772067630517913,3.6446847722215825,3.6446847722215825,19.421959591561905,223.43109938043008,0.0,-1.026930245703127
mp-1007908,DyTlTe2,True,0.047787016809853505,4.441852276256357,4.441852276256357,24.446672190000044,417.7135878984661,0.7156,-1.2582599645833241
mp-7942,NaTiS2,True,0.04779705998694332,3.586209546588865,3.586209546588865,19.728867919129204,219.73747090578973,0.0,-1.591594999928161
mp-999289,PrTlSe2,True,0.04782399093504415,4.349465115263159,4.349465115263159,23.099142010000232,378.44100264591685,1.2363,-1.589741347447915
mp-1101653,NaDyO2,True,0.04842876148089053,3.3969454509250205,3.3969454509250205,16.42448643823667,164.13438658121981,4.0747,-3.134717853261493
mp-756034,NaSmO2,True,0.048444688288688746,3.5332498600222118,3.5332498600222118,16.84410985097381,182.10731770523677,4.0559,-3.020317419094827
mp-771648,RbCrO2,True,0.04866773078767024,3.116644760434473,3.116644760434473,18.60645273,156.5196336960457,2.7996,-2.000040384375
mp-9036,KSmTe2,True,0.048860903034732985,4.571723449702863,4.571723449702863,24.521902073864553,443.8586503816723,1.2623,-1.6781963459375
mp-999135,TaCuN2,True,0.049094417024367884,3.154904056971384,3.154904056971384,15.103616847449125,130.1918818732145,0.3733,-0.470015289229166
mp-1065514,YTlTe2,True,0.04911599243011197,4.458432792079935,4.458432792079935,24.39849603677942,420.00855540201576,0.7266,-1.266584396666659
mp-769167,EuYO2,True,0.049254999228901246,3.4695634017633976,3.4695634017633976,17.547378251488883,182.93319757011687,0.0,-3.153478651250002
mp-1224394,HfUN2,True,0.04931962177726908,3.2360133201371992,3.2360133201371992,17.20751887755398,156.05205335794537,0.0,-1.874428318124998
mp-1029267,CaZrN2,True,0.04939681276157753,3.314180928001271,3.314180928001271,16.820079518591566,159.9967289657377,0.39380000000000004,-1.796189295625
mp-999121,TbTlTe2,True,0.050369161897399095,4.464251603224401,4.464251603224401,24.403128480000216,421.1855515833839,0.7241999999999991,-1.266899713333328
mp-754777,NaLaO2,True,0.05070658123266588,3.681859861826626,3.681859861826626,16.844029019749442,197.74755459327224,3.918799999999999,-2.991584209094828
mp-5175,NaInO2,True,0.050883598434230196,3.245754100458076,3.245754100458076,16.278379742648077,148.51592895285944,1.9142000000000001,-1.978897959511493
mp-2646991,Ca2NF,True,0.051385646377564285,3.5434832203703137,3.5434832203703137,17.464561688216914,189.91054642348357,1.975899999999999,-2.238884589999999
mp-8001,LiAlO2,True,0.0518539603542555,2.7932317852465203,2.7932317852465203,14.11700972033905,95.3865840445145,6.1183,-3.096943435208333
mp-1065609,GdTlTe2,True,0.05202638203619528,4.492398815654793,4.492398815654793,24.385950679037602,426.2132344321394,0.058600000000000006,-1.287558399166655
mp-690794,Sr2HN,True,0.052241616772019626,3.813497687331907,3.813497687331907,18.906782999999994,238.11965577810503,1.8058,-0.758281971875
mp-11740,KNdTe2,True,0.052547424162582845,4.620797928443806,4.620797928443806,24.597035925004164,454.82817602976723,1.2648000000000001,-1.685042555312502
mp-29662,TlBiSe2,True,0.05375729171139963,4.282328402602161,4.282328402602161,22.754942070000023,361.3818231950785,0.232299999999999,-0.5126263132812451
mp-5273,KPrTe2,True,0.05538390749005706,4.653260668909595,4.653260668909595,24.558539300209418,460.51939703807017,1.279999999999999,-1.684160613854167
mp-755581,NaCeO2,True,0.05582804917691434,3.576453302230717,3.576453302230717,16.83736513248534,186.51333144768333,0.0,-2.942198925344827
mp-4573,TlSbTe2,True,0.05584016804821523,4.465215877076306,4.465215877076306,23.728295379266516,409.71521525832867,0.1268,-0.439535854166667
mp-11739,KLaTe2,True,0.05585312514971689,4.709378486002885,4.709378486002885,24.563411191166676,471.78757705654084,1.701299999999999,-1.699286096395833
mp-999132,SmTlTe2,True,0.05656378938782646,4.528859885625826,4.528859885625826,24.383262790000177,433.1120035901761,0.703599999999999,-1.279318877916662
mp-754392,BaEuO2,True,0.05717732623640895,3.7524916016578014,3.7524916016578014,18.77548705500877,228.96088833724338,0.0,-2.943685521250001
mp-1216719,U2TeSe,True,0.057341610273119216,4.290554057039137,4.290554057039137,19.870059972736293,316.7791329128017,0.0,-0.9411779022525991
mp-999460,NaScS2,True,0.05737845592463669,3.7588863822528844,3.7588863822528844,19.66185396000013,240.5877414600038,1.678999999999999,-2.00244756515625
mp-999139,TaHgS2,True,0.05785017482852852,3.379425977414211,3.379425977414211,29.098372554810158,287.7963011585054,0.0,-1.003827781208333
mp-780415,NaEuO2,True,0.05796331842279759,3.519287954603601,3.519287954603601,16.682109805178712,178.93331720868818,0.0,-2.602592354094828
mp-22526,LiCoO2,True,0.058743553726661804,2.811256976798502,2.811256976798502,13.909456432567929,95.20108164500833,0.6623,-1.745659770833334
mp-1245560,ZrMnN2,True,0.059178159770722175,5.442411226440354,3.2167525144897295,4.975118526870493,80.81046369200168,0.0,-1.021348176982758
mp-1222701,LaTmS2,True,0.06111857074437724,3.9301786134483776,3.9301786134483776,20.18808953694611,270.05388536860875,0.0,-2.316397452656247
mp-1223313,KNaCl2,True,0.06131520011564118,4.172640897830383,4.172640897830383,20.848466732723644,314.35963335997104,4.9632000000000005,-2.087182634687499
mp-20289,NaInS2,True,0.06172556651557226,3.81681116079536,3.81681116079536,19.88759370298708,250.9078318115084,1.8377000000000001,-1.090385381406248
mp-849241,LiNiO2,True,0.06226888051573788,5.02038947968203,5.802542223539179,6.499113463706339,173.32226421515867,0.0,-1.482013294833333
mp-999319,NdTlTe2,True,0.06267047726925863,4.580890796633336,4.580890796633336,24.319160090000175,441.95604750253176,0.7119000000000001,-1.284247718541665
mp-27438,TlBiTe2,True,0.06335783758433482,4.552892133481584,4.552892133481584,23.891349223335077,428.89010882861703,0.46839999999999904,-0.520886999166666
mp-1247154,MgMnN2,True,0.06347178480405641,2.935426192762202,2.935426192762202,14.664951794455341,109.43433461809911,0.000399999999999,-0.7452095282327591
mp-22473,NaInSe2,True,0.06364899827998392,3.996856224578365,3.996856224578365,20.858074463557106,288.56383250412233,1.019199999999999,-1.009197114531248
mp-25411,LiNiO2,True,0.06369059890885649,2.8573307776117423,2.8573307776117423,14.061568510422576,99.42267350131206,0.0,-1.4854022958333322
mp-999288,PrTlTe2,True,0.06489317842257658,4.609990936156723,4.609990936156723,24.36093785000011,448.3578505993771,0.7130000000000001,-1.282813677083328
mp-1215444,YbPrSe2,True,0.06497816100323528,4.0341369665096,4.0341369665096,21.113535237873474,297.57255066254214,0.0,-2.008694061197914
mp-1226761,CdPbS2,True,0.06499376428611982,4.078574378084008,4.078574378084008,19.867766832556747,286.21768153516985,0.9252,-0.7454701112499981
mp-27869,Ba2PCl,True,0.06558498543599484,4.681180345817013,4.681180345817013,22.725994427883837,431.284920281012,1.2602,-1.8174280386607151
mp-1219660,PuTaC2,True,0.0656185283341216,3.2752019903161687,3.2752019903161687,16.809629805315907,156.1582593306355,0.0,-0.278414030999996
mp-9035,NaLuS2,True,0.06603332090017659,3.8754610815211166,3.8754610815211166,19.79132655,257.4259334095347,2.399299999999999,-2.132746850572916
mp-8002,LiGaO2,True,0.06643746848755246,2.9504160677339204,2.9504160677339204,14.654101737192523,110.47305474309161,3.744799999999999,-2.312702965208333
mp-1217283,TePb2S,True,0.06736220745383686,4.4439521475761286,4.4439521475761286,21.77967481880914,372.4952770191789,0.6182999999999991,-0.6778576810416651
mp-1227051,CaMnS2,True,0.06782665635503334,3.8674835204786584,3.8674835204786584,18.65573966282562,241.6573718398911,0.33330000000000004,-1.758302847526938
mp-4494,NaYbS2,True,0.06792863245966149,3.894591556423393,3.894591556423393,19.774519186205996,259.7528971250823,0.0,-2.139647165156249
mp-1227053,CaMnSe2,True,0.0680090391281442,4.044531522070482,4.044531522070482,19.584933109433614,277.45283922426574,0.344699999999999,-1.600505605651939
mp-754567,NaCdO2,True,0.06803185687263133,3.3577355373016324,3.3577355373016324,16.547613518252625,161.56934898663846,0.0,-1.2931675128448261
mp-18793,LiCrO2,True,0.06812619296372632,2.919274662471077,2.919274662471077,14.25272094847428,105.19093846540201,3.1156,-2.408621853333333
mp-1216627,UTaC2,True,0.06813135404531151,3.2380422331167513,3.2380422331167513,16.85753801585323,153.06989953909837,0.0,-0.581069108083333
mp-1222885,LaErSe2,True,0.0683996441620079,4.105256283129023,4.105256283129023,21.005339554934082,306.5779295984143,0.0,-2.103320804114581
mp-9076,NaTmS2,True,0.06851865601452477,3.9109835231248073,3.9109835231248073,19.795267814787344,262.2188968952568,2.3614,-2.13906569640625
mp-1221682,MnCoSe2,True,0.06872496126549006,3.7284272366923026,3.7284272366923026,17.295416960669318,208.21547882554856,0.0,-0.373959170654633
mp-1222707,LaThN2,True,0.06899786482750214,3.6976980863630238,3.6976980863630238,18.141943801871662,214.821302791142,0.0,-1.745250065624993
mp-1215248,ZrUN2,True,0.07010148564397534,3.2953307327491417,3.2953307327491417,17.02654454213392,160.12353447413864,0.0,-1.8404608868749999
mp-3613,NaErS2,True,0.07056797013521524,3.9300998660090323,3.9300998660090323,19.764661099608315,264.37913422214706,2.324499999999999,-2.1339725022395832
mp-25373,LiMnO2,True,0.07076305236346808,3.02223454034527,3.02223454034527,14.650154138046126,115.88551500678278,0.0,-2.061952142816093
mp-1226527,CeUN2,True,0.07084825695410552,3.487282378538561,3.487282378538561,17.555886479819755,184.89604698626437,0.0,-1.608994042499997
mp-3056,NaTlO2,True,0.07099819027880402,3.3685574822914273,3.3685574822914273,16.36677463147105,160.83540588650413,0.6208,-1.417691698678162
mp-1018096,Ba2NF,True,0.0710728437403646,4.021644848599847,4.021644848599847,20.025309420000255,280.48994533765756,1.0924,-1.906967162499999
mp-1221645,MnCdO2,True,0.07131907108342028,5.599715400094709,3.228927031598713,5.631171676270804,96.02923482547213,0.0,-1.6477820288577592
mp-5694,NaHoS2,True,0.07186323328587933,3.9455928805374576,3.9455928805374576,19.83584919,267.427443071713,2.3055,-2.13508399015625
mp-10988,NaYbSe2,True,0.07262693718104145,4.05512513237874,4.05512513237874,20.701607190568165,294.810682132369,0.0,-1.978306370781251