material_id,formula_pretty,is_fit,rms_A,a_A,b_A,c_A,volume_A3,band_gap,formation_energy_per_atom
mp-1018098,Ba2BrN,True,1.0914631771092886e-06,4.167823203486998,4.167823203486998,23.8157901000002,358.2731004401971,1.1377,-1.41151841
mp-1178141,KDyO2,True,5.574185034723925e-05,3.4515553238560726,3.4515553238560726,18.60828288248693,191.9846954322736,3.9736000000000002,-3.103410802229165
mp-1018031,KInO2,True,0.0003522119082378598,3.3165671287990266,3.3165671287990266,18.337967505429912,174.6865286249256,2.077499999999999,-1.911027195979166
mp-8409,KYO2,True,0.000359752266558738,3.4564958304595095,3.4564958304595095,18.582286919784195,192.26572408824234,3.973899999999999,-3.075378259312499
mp-7015,CsCeS2,True,0.0003861888354901036,4.291256316157876,4.291256316157876,24.171055761201682,385.47406462252866,0.0,-2.109942643906247
mp-22936,Ca2NCl,True,0.0011412706884764185,3.6578330179360052,3.6578330179360052,19.726325322534635,228.57281371857283,2.371,-1.796587630312501
mp-754883,KHoO2,True,0.0013436316573741355,3.4312080020699804,3.4312080020699804,18.571856744692155,189.35642641667494,3.9742,-3.118591663062497
mp-9081,CsNdS2,True,0.0016996516235042848,4.232090845826082,4.232090845826082,24.342717893055173,377.5805903227369,2.1496,-2.08759569578125
mp-9082,CsSmS2,True,0.001982758915315805,4.172887316821706,4.172887316821706,24.31480524379117,366.66946229720185,2.1397,-2.053268447413792
mp-1221681,MnSnTe2,True,0.0021876428087164814,4.066205560871561,4.066205560871561,20.611443043829244,295.1329441179396,0.0,-0.21462919023706903
mp-7959,KErO2,True,0.002275278481955595,3.4083938692741373,3.4083938692741373,18.52192202936645,186.3443520935899,3.9606,-3.138044281812497
mp-561586,CsLaS2,True,0.002299697980288022,4.331961217395682,4.331961217395682,24.301940205455328,394.9487097767838,2.5035,-2.159362920156248
mp-1101163,YbPrO2,True,0.0025666959200721213,3.3764617900757408,3.3764617900757408,17.943652115572977,177.1597876914195,0.0,-3.191404323541665
mp-8176,RbTlO2,True,0.0026737013219294025,3.48784157923181,3.48784157923181,19.203962748926696,202.31821650796965,0.8461999999999991,-1.321913310208335
mp-753774,KTmO2,True,0.003721510994550132,3.3852226442093154,3.3852226442093154,18.526143000000133,183.8612118185135,3.9715,-3.158537831812501
mp-9080,CsPrS2,True,0.0038972711099197377,4.267414018038834,4.267414018038834,24.35570070317922,384.11460393765043,2.161,-2.075983611822913
mp-1101401,RbPrO2,True,0.004280219373428693,3.6801494518350446,3.6801494518350446,19.697806164196663,231.03586486567187,3.3978,-2.867727654791665
mp-1076928,CsEuS2,True,0.004317826158373609,4.261235755560461,4.261235755560461,24.08946611309868,378.8165387782078,0.0,-1.742171750156249
mp-28638,Gd2CCl,True,0.004448088293697924,3.6970680755164187,3.6970680755164187,20.573162346451227,243.52669781913386,0.0,-1.2333587012500011
mp-1018051,KTiS2,True,0.004489712998945766,3.662555900502338,3.662555900502338,21.890610440617365,254.3062465878504,0.0,-1.5784256213958332
mp-7748,NaAlO2,True,0.004562296627841304,2.8998439001285035,2.8998439001285035,16.08848849540273,117.16424991412816,4.7292000000000005,-2.864141727844827
mp-9370,RbLuS2,True,0.004896374374924457,3.9671027315775125,3.9671027315775125,22.88982880448147,311.9751989587966,2.3998,-2.085331389791667
mp-768949,KEuO2,True,0.00512123891211009,3.569034802214393,3.569034802214393,18.431565517149483,203.32670451648264,0.0,-2.5851433405625013
mp-755010,KYbO2,True,0.005497032032634713,3.3697030890791897,3.3697030890791897,18.50249191282942,181.94667642688444,0.0,-3.134193986562499
mp-9084,CsGdS2,True,0.005573920284396848,4.134965697224747,4.134965697224747,24.211601092989294,358.50726740376325,1.8329,-2.082173956406247
mp-9369,RbYbS2,True,0.006028999702087081,3.9868399142503077,3.9868399142503077,22.901415007083603,315.2466960732513,0.0,-2.13238945546875
mp-7972,RbLaO2,True,0.006058608548442859,3.7331845257849654,3.7331845257849654,19.602082796982163,236.5874835570637,3.5220000000000002,-2.960912605625
mp-757021,KGdO2,True,0.006071847526141805,3.5196635108819216,3.5196635108819216,18.590471419372406,199.44507936556928,3.05,-3.0375402743125
mp-23040,Ca2PI,True,0.0064168101752907,4.311202296987753,4.311202296987753,22.26635316520948,358.4070375781162,1.6997,-1.503881859910714
mp-7973,RbNdO2,True,0.00645656253004469,3.643908003784008,3.643908003784008,19.666961709207744,226.1531867949743,3.4259999999999993,-2.901663756249998
mp-9368,RbTmS2,True,0.006839660293103899,4.001717706350544,4.001717706350544,22.919462553765847,317.854203351003,2.368,-2.092722588125001
mp-23056,Sr2BrN,True,0.0069159939458044856,3.938812910281553,3.938812910281553,21.98055454407755,295.3248432689636,1.8455,-1.514354432499999
mp-1178135,KLuO2,True,0.007111525906569715,3.347485996322061,3.347485996322061,18.483156145098498,179.3677258569975,3.940399999999999,-3.180326248479166
mp-9085,CsTbS2,True,0.007132153343925871,4.0951363365605955,4.0951363365605955,24.258103575996813,352.3093813156688,2.142,-2.121199003906248
mp-9367,RbErS2,True,0.008388143525705292,4.019733969804928,4.019733969804928,22.928356698052692,320.84714939066515,2.3521,-2.096589583124998
mp-9086,CsDyS2,True,0.00846732055227402,4.074784324668113,4.074784324668113,24.232494585017054,348.4480268988807,2.1424,-2.119147307656245
mp-1178133,KSmO2,True,0.008727634010373478,3.562373450369533,3.562373450369533,18.64131893907216,204.87367579866606,3.8604000000000003,-3.006470040562499
mp-753898,LaTmO2,True,0.008836943874454314,3.4357313435069385,3.4357313435069385,18.020833651063565,184.22302243570144,0.0,-3.279041706250002
mp-23033,Sr2NCl,True,0.009294527015396646,3.8930932745441136,3.8930932745441136,21.11645839446954,277.16687862186404,1.9398,-1.640572135312501
mp-505158,CsHoS2,True,0.009642052858071163,4.056277507559998,4.056277507559998,24.2217700835466,345.1372447245131,2.1354,-2.11535593265625
mp-10785,RbLuSe2,True,0.009954652514125596,4.1362604678891195,4.1362604678891195,23.771646574433746,352.2132217791837,2.0299,-1.9347971397135422
mp-9366,RbHoS2,True,0.010111555430386466,4.039554085036224,4.039554085036224,22.944837856657568,324.2518623582276,2.3355,-2.093715566874999
mp-18921,NaCoO2,True,0.010275437305268661,2.8813691643751906,2.8813691643751906,15.439965425982269,111.01323629126136,2.245199999999999,-1.557503675344833
mp-7974,RbSmO2,True,0.01043519377654001,3.5834780947419884,3.5834780947419884,19.62598547703757,218.25872452104466,3.4884,-2.952667840624999
mp-999267,RbSnS2,True,0.010538916377811798,4.082522134560324,4.082522134560324,23.102615163196617,333.4639357234125,0.0,-0.9163308318749981
mp-561751,CsErS2,True,0.01117922846566483,4.041662458378783,4.041662458378783,24.165438961128885,341.8577271163582,2.1441,-2.108745502239578
mp-1245650,CaIrN2,True,0.011199289579206068,3.297700001294385,3.297700001294385,15.028200673324832,141.533714969211,0.0,-0.32394264437500203
mp-7046,RbDyS2,True,0.011248811816729593,4.059090842996397,4.059090842996397,22.957688686076207,327.57921367900826,2.3216,-2.095267701041664
mp-22566,TlInS2,True,0.011432443694379341,3.876194985831499,3.876194985831499,22.392092432509227,291.36443608755167,0.6884,-0.7748982481250011
mp-999265,RbYS2,True,0.011834843348929529,4.068609414512516,4.068609414512516,22.947026250000047,328.96450732533003,2.3166,-2.091590315624998
mp-7958,KLaO2,True,0.01204892190226729,3.714999981146087,3.714999981146087,18.60610088209639,222.38404980785032,3.8596,-3.0045629105625
mp-9365,RbTbS2,True,0.012509790142472561,4.080039225430496,4.080039225430496,22.967554764114958,331.11135086252773,2.3079,-2.096626694791664
mp-754158,KNdO2,True,0.012529511438825107,3.622150588424085,3.622150588424085,18.699685838796174,212.47016036806238,3.7088,-2.950170463687499
mp-578611,NaNiO2,True,0.012551173394192434,2.945183835144533,2.945183835144533,15.518545163535638,116.57527603683894,0.0,-1.314003407844826
mp-9089,CsTmS2,True,0.012942468198969114,4.020837594501494,4.020837594501494,24.163599607884674,338.3181725724167,2.1573,-2.109653616406252
mp-7976,RbGdO2,True,0.013318389934115514,3.5427308168687297,3.5427308168687297,19.559266622126994,212.59816355118593,3.0036,-2.979642334375001
mp-5475,NaTaN2,True,0.013428809216452666,3.1246283752831827,3.1246283752831827,16.895790765431105,142.85843858224615,1.276499999999999,-1.139296941208332
mp-1001604,LuTlS2,True,0.013455816967485818,3.9199331974683718,3.9199331974683718,22.504731060000047,299.47583942569463,1.3485,-1.72582561624999
mp-8188,KScO2,True,0.01349075274555989,3.2212256938291337,3.2212256938291337,18.323436935919094,164.65687873400995,3.624099999999999,-3.093135745562499
mp-20277,RbEuO2,True,0.013638467464152017,3.5954246197767157,3.5954246197767157,19.36742576377908,216.8217810521051,0.0,-2.531090263125001
mp-9090,CsYbS2,True,0.013652042912105264,4.0079425918230855,4.0079425918230855,24.137484375773575,335.78834799228116,0.0,-2.106947302656252
mp-28554,Ca2AsI,True,0.013722004876414144,4.396499437035258,4.396499437035258,22.352535001734463,374.17214971783704,1.5566,-1.500340893124999
mp-4026,KCrS2,True,0.014172879774632028,3.6502725103500553,3.6502725103500553,21.250704230079357,245.2192354996073,1.1644,-1.1814435205624991
mp-7045,RbGdS2,True,0.014244340739377928,4.115347444628538,4.115347444628538,22.973363729573514,336.9521521027902,1.7435,-2.096890640624998
mp-20584,RbEuS2,True,0.014589797828969618,4.230992131305144,4.230992131305144,22.711198425649435,352.0911578593852,0.0,-1.766576756875002
mp-10784,RbErSe2,True,0.01483427425093434,4.183343916535888,4.183343916535888,23.7983671275726,360.6823837031891,1.9769,-1.955691798046876
mp-29404,La2CCl,True,0.014877496356830045,3.8595325324349448,3.8595325324349448,21.959475315232492,283.2839718087672,0.0,-1.183569436250002
mp-1018099,Ba2NCl,True,0.01503647578153092,4.132263198566356,4.132263198566356,22.943824440000093,339.29104205403036,1.1077,-1.543993426250001
mp-4519,KPrO2,True,0.015112053524956254,3.659294705926002,3.659294705926002,18.707617143670596,216.94211996109476,3.6626000000000003,-2.913740302229166
mp-561619,CsLuS2,True,0.015176403555318864,3.9880304315694484,3.9880304315694484,24.13538796883449,332.43125053684093,2.1698,-2.047187931580456
mp-23009,Ca2BrN,True,0.015228133021765147,3.7095114065778385,3.7095114065778385,20.588636193915942,245.35314711594935,2.4254000000000002,-1.635277027499999
mp-1245888,CaOsN2,True,0.015326455969016628,3.2525250636299416,3.2525250636299416,15.376065718847913,140.8695612619041,0.0,-0.33152775
mp-13313,ScTlSe2,True,0.01568946043634608,3.967793441523208,3.967793441523208,23.078360715339485,314.654320400699,0.6146,-1.4527441607812501
mp-16472,YbTlS2,True,0.015795686134156096,3.935906374624259,3.935906374624259,22.514255020941185,302.0492286312001,0.0,-1.715076755156246
mp-10783,RbHoSe2,True,0.015843913796345258,4.201311853103307,4.201311853103307,23.805510614365897,363.89657806212574,1.958699999999999,-1.958008406796873
mp-11742,CsNdTe2,True,0.016547984592146868,4.6750223803333535,4.6750223803333535,26.807260426690487,507.39998924924964,1.291999999999999,-1.6802971043750001
mp-1066791,TmTlS2,True,0.016813362285108893,3.9530565286393844,3.9530565286393844,22.494266970000023,304.41673697937097,1.3817,-1.731886729583327
mp-1222731,LaUN2,True,0.017408770005843687,3.5574100089077336,3.5574100089077336,17.79262636086504,195.0017620856671,0.0,-1.635867771874998
mp-9364,RbSmS2,True,0.017848719270259873,4.158816801875192,4.158816801875192,23.010607678925048,344.66588523768814,2.2721,-2.080729654375
mp-754933,SmTlO2,True,0.01792123516245155,3.611568283321308,3.611568283321308,19.531692465840457,220.62878332323368,1.7217,-2.619747109583335
mp-8175,KTlO2,True,0.018135404368561207,3.4535242973327644,3.4535242973327644,18.306719996473184,189.0889727002186,0.8820000000000001,-1.384316650145836
mp-14437,RbYO2,True,0.018156239680986886,3.4813449539310914,3.4813449539310914,19.526692523359472,204.95260165197726,3.6087,-3.011982739375
mp-7476,RbDyO2,True,0.018299213518662965,3.477229253665407,3.477229253665407,19.529432770737085,204.49698551333805,3.602,-3.039326717291665
mp-1245746,NaSbN2,True,0.018309689072175776,3.2048504241335465,3.2048504241335465,17.471298736367853,155.4072771894737,0.0,-0.06594501968750001
mp-4123,ErTlS2,True,0.018465670039927443,3.9688424321259186,3.9688424321259186,22.522951824311615,307.2441722706101,1.4109,-1.734548867083325
mp-7017,NaNbN2,True,0.018574033762815242,3.1441331154781715,3.1441331154781715,16.932769052785016,144.9641009162174,0.8101,-0.884141047844828
mp-10782,RbTbSe2,True,0.018881290127399083,4.239960061190024,4.239960061190024,23.813682097575263,370.7496202192768,1.9336000000000002,-1.96795239971354
mp-754253,EuTlO2,True,0.019629878713284567,3.590087513415376,3.590087513415376,19.472484212132898,217.35121015846778,0.0,-2.209416787083336
mp-1007665,HoTlS2,True,0.01977929927839733,3.991667457281958,3.991667457281958,22.490077410000097,310.33466419922536,1.4885000000000002,-1.731263990833324
mp-6978,RbHoO2,True,0.02000607368255746,3.4557791234409887,3.4557791234409887,19.516477953594077,201.8478047298926,3.625099999999999,-3.052321075624998
mp-10781,RbGdSe2,True,0.020537043225163386,4.271940981679391,4.271940981679391,23.825984588809533,376.55808484360546,1.033899999999999,-1.9765518055468752
mp-3535,RbCeS2,True,0.02076101444536302,4.266165180805552,4.266165180805552,22.932445163564907,361.45674136484894,0.0339,-2.028158233124998
mp-9383,SrHfN2,True,0.021024973387204726,3.356726211180688,3.356726211180688,17.766084005368487,173.36210936835187,0.3109,-1.639650124375002
mp-569689,Eu2PI,True,0.021225383221107574,4.410252390021785,4.410252390021785,22.910089142514558,385.90845937289123,0.0,-1.516143607410716
mp-7477,RbErO2,True,0.021441883311363638,3.4333866162863087,3.4333866162863087,19.487236246605633,198.9419184590083,3.6429,-3.069514136875
mp-31166,DyTlS2,True,0.02149046957227679,4.012314027525279,4.012314027525279,22.483435274581506,313.460724033162,1.5281999999999991,-1.73212755249999
mp-578605,NaMnO2,True,0.02172181936405436,3.1096249825182425,3.1096249825182425,16.16513032400843,135.3710742834301,0.0,-1.929011122327586
mp-578604,NaCrO2,True,0.021903141386787176,2.990804383100324,2.990804383100324,15.762331187822996,122.10321438561809,2.891,-2.255811479719828
mp-9363,RbNdS2,True,0.02200172159923322,4.216751312247566,4.216751312247566,23.027030299605876,354.5884143958098,2.2617,-2.0674841125
mp-1066131,YTlS2,True,0.022663531624688506,4.019825577902184,4.019825577902184,22.464658650000025,314.37273550075605,1.5298999999999991,-1.727480834583323
mp-1245782,CaRuN2,True,0.022902077912496422,3.2245151348588443,3.2245151348588443,15.435999487862553,138.99341537424303,0.0,-0.40866670000000005
mp-7478,RbTmO2,True,0.022998668283772145,3.413338976353101,3.413338976353101,19.45572679790374,196.30751734819884,3.663599999999999,-3.087397629375002
mp-1007636,KLuS2,True,0.023123817750909898,3.9432930034949796,3.9432930034949796,21.892134780000045,294.806355117585,2.4307,-2.157894059010415
mp-753298,PrYO2,True,0.02312455588908142,3.4697765224304757,3.4697765224304757,17.970298700136432,187.36520212106424,0.0,-3.141396790416667
mp-1247261,CaRhN2,True,0.023138344287811332,3.2633440108613976,3.2633440108613976,15.192883146440273,140.1188439136208,0.0,-0.293363424375
mp-9361,RbLaS2,True,0.023208718527127095,4.313496055084618,4.313496055084618,22.97714164377258,370.2417956317631,2.685699999999999,-2.141000711875
mp-755544,YTlO2,True,0.023347098685117654,3.512462059250675,3.512462059250675,19.501695860753365,208.36573119416892,1.4729,-2.679657220833335
mp-999119,TbTlS2,True,0.023647709046183588,4.031738795473204,4.031738795473204,22.478017050000027,316.4269049837382,1.6253000000000002,-1.7328392637499932
mp-9362,RbPrS2,True,0.024067662214411402,4.249940644456817,4.249940644456817,23.057658547145376,360.671282854774,2.2686,-2.055922521041666
mp-1001611,LuTlSe2,True,0.02424636329265142,4.079091944358846,4.079091944358846,23.214966090000114,334.5227624824011,1.212899999999999,-1.589240393671866
mp-7479,RbYbO2,True,0.024313553401245556,3.3966600703451393,3.3966600703451393,19.44444392127172,194.28100037169276,0.0,-3.061658408437502
mp-10780,RbSmSe2,True,0.024580289188107368,4.313515971325479,4.313515971325479,23.85152802946325,384.33475541010546,1.899,-1.965809699296873
mp-578606,NaCuO2,True,0.025082808557403483,3.0399481010850318,3.0399481010850318,15.81134241330571,126.54113169295938,0.0,-1.225822247844827
mp-9382,SrZrN2,True,0.02509150587471629,3.3766284728298035,3.3766284728298035,17.76585066203008,175.42165151288233,0.232499999999999,-1.5829082481250012
mp-557655,GdTlS2,True,0.02517384569042459,4.067304477697379,4.067304477697379,22.460817308795093,321.78778679364444,0.8492000000000001,-1.73337654208332
mp-1101250,TlInO2,True,0.02572411717407423,3.383079843352869,3.383079843352869,19.57241836794576,193.9990562856506,0.7159000000000001,-1.4884587775
mp-7480,RbLuO2,True,0.025760027507812575,3.376969158757458,3.376969158757458,19.42293686383216,191.8225759655296,3.693099999999999,-3.105072738541667
mp-570118,YbTlSe2,True,0.026080018204076752,4.095355943830885,4.095355943830885,23.230649883079284,337.42347922610054,0.0,-1.59138915078125
mp-1217323,ThUC2,True,0.026112462288302645,3.6249439726031714,3.6249439726031714,17.71844098022164,201.6316643289521,0.0,-0.394905336249998
mp-10777,RbCeSe2,True,0.026465322959706515,4.422701257445096,4.422701257445096,23.786321748388357,402.9332719927014,0.0478,-1.920673315546873
mp-755183,DyTlO2,True,0.026574306511360498,3.5040418776853945,3.5040418776853945,19.540809165031963,207.78383178537766,1.482399999999999,-2.70983181875
mp-4326,KErS2,True,0.02700382659566981,3.9943088496332013,3.9943088496332013,21.921516992028586,302.8897112907208,2.3727,-2.165880855677082
mp-5693,NaCrS2,True,0.027057182257125553,3.5732435024177183,3.5732435024177183,19.323996606753752,213.674555692406,0.9908999999999991,-1.192343681594826
mp-1067280,TmTlSe2,True,0.027329962925679855,4.1111627445854015,4.1111627445854015,23.202460670196736,339.62059233862203,1.1879,-1.595562889531248
mp-1219740,PrUN2,True,0.027539126460665482,3.5449338833620914,3.5449338833620914,17.568158272987848,191.19350999443907,0.0,-1.62077667104166
mp-15786,KHoS2,True,0.027842912672697888,4.018132733901642,4.018132733901642,21.91419779829489,306.4112926711872,2.3505000000000003,-2.169712703593749
mp-30041,RbBiS2,True,0.027935097154065024,4.15549249930194,4.15549249930194,23.14155236476658,346.0733251728908,1.339,-1.017452068125
mp-8830,NaRhO2,True,0.02798723284781221,3.1173379381712683,3.1173379381712683,15.275066728828227,128.5527932875287,1.377399999999999,-1.4591744428448281
mp-754555,HoTlO2,True,0.028092465685725872,3.474344133250185,3.474344133250185,19.498068152106992,203.82989550830163,1.4262000000000001,-2.722815777083333
mp-10779,RbNdSe2,True,0.028095342564029232,4.3678276055337175,4.3678276055337175,23.90189253752534,394.90615143947167,1.8958,-1.961647512421874
mp-570117,ErTlSe2,True,0.028102984817103695,4.129699048501927,4.129699048501927,23.200928013305454,342.6674048688746,1.2151,-1.6069722595052
mp-558762,KSnS2,True,0.02848938909660742,4.028074193802103,4.028074193802103,22.414468189582575,314.9589786547241,0.0,-0.9444236943124991
mp-546552,KCrO2,True,0.028823645254188106,3.0616764198230917,3.0616764198230917,17.806434429175205,144.55268911826204,2.9299,-2.117250499312501
mp-1002123,KZrS2,True,0.0290615038853874,3.7432310151210215,3.7432310151210215,22.24633362000012,269.94938277058407,0.0,-1.739137890562498
mp-569677,Sr2IN,True,0.029315263287842674,4.022154953772918,4.022154953772918,23.26259038918333,325.91646482532747,1.7923,-1.273546459999999
mp-2647007,Mg2NCl,True,0.02935671635789524,3.292331514280271,3.292331514280271,17.808042060410898,167.16829871366764,2.226099999999999,-1.370756165416666
mp-15785,KDyS2,True,0.029412579196835816,4.036870451420054,4.036870451420054,21.922935330004517,309.39903834996466,2.3337,-2.171577768593749
mp-754823,ErTlO2,True,0.029585314861777744,3.4649680815136654,3.4649680815136654,19.52742285371485,203.03646296931325,1.371499999999999,-2.7413953683333343