material_id,formula_pretty,is_fit,rms_A,a_A,b_A,c_A,volume_A3,band_gap,formation_energy_per_atom
mp-1207082,LiMgSb,True,2.8083355203289285e-16,6.62367198,6.62367198,6.62367198,290.60056279150814,1.4438,-0.616211496111109
mp-1100417,VSbRh,True,2.812490978548875e-16,6.083776,6.083776,6.083776,225.17472750216916,0.0,-0.283458533055555
mp-631546,TlCoBi,True,2.8160993203534117e-16,6.940086,6.940086,6.940086,334.2678103627853,0.0,0.8453412447777751
mp-961704,NbTlPt,True,2.8352991966237144e-16,6.382248,6.382248,6.382248,259.9686792090268,0.0,0.614533467222221
mp-37381,SmOF,True,2.8355919086497185e-16,5.568811999999998,5.568811999999998,5.568811999999998,172.69814383828134,5.508699999999999,-4.145513748333334
mp-631561,ZrAgMo,True,2.836995565497977e-16,6.377860000000001,6.377860000000001,6.377860000000001,259.4328373957438,0.0,0.9523461230555531
mp-631410,CdNiP,True,2.8660661652622724e-16,6.018832,6.018832,6.018832,218.04024627469198,0.0,0.551679837188494
mp-961731,NbInNi,True,2.8733318136515727e-16,6.21441,6.21441,6.21441,239.9936264468691,0.0,0.661525594444444
mp-1009592,CrFeTe,True,2.8762092903554754e-16,5.863692,5.863692,5.863692,201.61064109051432,0.0,-0.010901138888887002
mp-961725,CrGeRh,True,2.8879172914275027e-16,5.816244,5.816244,5.816244,196.75594006139067,0.0,-0.014577054999998002
mp-568466,LiInSn,True,2.896401189345711e-16,6.782990000000001,6.782990000000001,6.782990000000001,312.078270416365,0.0,-0.179724341666665
mp-961726,NbGeRh,True,2.9008034564186433e-16,6.097262,6.097262,6.097262,226.67549422805936,0.0,0.008528901666667001
mp-1100426,SrLiSb,True,2.9074046908893644e-16,7.50424,7.50424,7.50424,422.59090457222504,0.9661999999999991,-0.43240461777777706
mp-30848,USnPt,True,2.9225781176243827e-16,6.662026479999999,6.662026479999999,6.662026479999999,295.6780352674772,0.0,-0.499763151666666
mp-631379,ZnCuMo,True,2.926550357771558e-16,5.902345999999999,5.902345999999999,5.902345999999999,205.62409020868478,0.0,0.9674886666666661
mp-631366,TcSnSe,True,2.9368193702571396e-16,6.529263999999998,6.529263999999998,6.529263999999998,278.3509365042256,0.0,0.857410703229165
mp-7173,ScSbPt,True,2.948654181240636e-16,6.35823467125591,6.35823467125591,6.35823467125591,257.04529493043447,0.644099999999999,-1.1701720016666641
mp-1094088,NbCoSn,True,2.9576258782199875e-16,5.942632899999997,5.942632899999997,5.942632899999997,209.8634021207055,0.970399999999999,-0.313250008333332
mp-1100396,LiSnB,True,2.9681880616533484e-16,5.572972,5.572972,5.572972,173.0854586304717,0.41500000000000004,0.0959620875
mp-20952,TiNiSb,True,2.972586598382921e-16,5.911909430315132,5.911909430315132,5.911909430315132,206.6252139681663,0.0,-0.557564111111111
mp-4025,TmNiSb,True,2.972772958334157e-16,6.249598723791382,6.249598723791382,6.249598723791382,244.09360346341163,0.25519999999999904,-0.9622721633333361
mp-961709,ZrPtPb,True,2.9873840224187785e-16,6.689699999999999,6.689699999999999,6.689699999999999,299.37803031627294,0.0,-0.21671589666667002
mp-631511,BiBTe,True,3.000338239952261e-16,6.632058,6.632058,6.632058,291.7057211507063,0.0,1.101091086388886
mp-4964,YSbPt,True,3.0112615649094733e-16,6.5840298045766055,6.5840298045766055,6.5840298045766055,285.41406072232695,0.10979999999999901,-1.3647838966666601
mp-1100399,HfAgB,True,3.018645768902457e-16,6.039993657711901,6.039993657711901,6.039993657711901,220.3481698702763,0.0,0.8752871963888961
mp-961678,ScCoTe,True,3.022595086012913e-16,6.024220280251206,6.024220280251206,6.024220280251206,218.62636367083692,0.867799999999999,-0.9258110738888891
mp-567636,VFeSb,True,3.023560905493348e-16,5.753840445803216,5.753840445803216,5.753840445803216,190.49055369541276,0.3487,-0.275219096666666
mp-962066,NaLiTe,True,3.0252033066668752e-16,6.931202,6.931202,6.931202,332.9857648286118,2.1547,-0.7993767837931031
mp-1100400,NbSiRh,True,3.0398625048003998e-16,5.8802639999999995,5.8802639999999995,5.8802639999999995,203.3248561542558,0.0,-0.211761196666665
mp-16329,ErSbPt,True,3.046800533474441e-16,6.53181817389986,6.53181817389986,6.53181817389986,278.6777274801166,0.0,-1.377276774444444
mp-1008813,RbAgO,True,3.0583030933292337e-16,6.383042,6.383042,6.383042,260.0657174995929,0.0,-0.45591307805555503
mp-11242,DyPbAu,True,3.058730887796823e-16,6.780085199999999,6.780085199999999,6.780085199999999,311.67750167068937,0.0,-0.674255037222226
mp-505599,VNiSb,True,3.066347236851648e-16,5.908002,5.908002,5.908002,206.21578273885487,0.0,-0.12468442230952301
mp-5318,MnCoSb,True,3.1031556920084095e-16,5.845410230033262,5.845410230033262,5.845410230033262,199.73077440334737,0.0,-0.126204628477009
mp-631468,SrScBe,True,3.1090595679710787e-16,6.948374,6.948374,6.948374,335.4668105255157,0.0,1.2909383233333331
mp-11836,ErSbPd,True,3.1410951199219207e-16,6.523725676996673,6.523725676996673,6.523725676996673,277.64321961580026,0.20929999999999901,-1.234696921111113
mp-567679,TiGaRh,True,3.1609003729731927e-16,5.910391999999999,5.910391999999999,5.910391999999999,206.46614917012286,0.0,-0.16754120694444402
mp-1062795,CoSI,True,3.1762044411052136e-16,6.28783,6.28783,6.28783,248.60071555572463,0.0,0.18742780250000002
mp-1206814,HfNiSb,True,3.1989115336913273e-16,6.29004,6.29004,6.29004,248.86293672219207,0.0,0.06980499000000101
mp-1100407,TaAsRu,True,3.211791841811498e-16,6.081438000000001,6.081438000000001,6.081438000000001,224.91522277004825,0.0,0.024332799072643
mp-961649,ZrFeTe,True,3.2184370512354103e-16,6.122916,6.122916,6.122916,229.54873523210307,1.155800000000001,-0.6725309055555551
mp-961653,FeSiW,True,3.235810722542024e-16,5.547036000000001,5.547036000000001,5.547036000000001,170.6801254191389,0.062899999999999,-0.280795349999999
mp-631552,SrBiB,True,3.25705014394914e-16,7.386508,7.386508,7.386508,403.01157294021726,0.0,0.829275844551266
mp-1018161,CrNiSb,True,3.2783768466265413e-16,5.90201,5.90201,5.90201,205.5889758178906,0.0,-0.015090736666666
mp-1018139,HoNiBi,True,3.2954397709760156e-16,6.4144267600000004,6.4144267600000004,6.4144267600000004,263.92075939442054,0.19410000000000002,-0.661764834999998
mp-30454,ErBiPt,True,3.311702498223872e-16,6.655650233686895,6.655650233686895,6.655650233686895,294.829864464598,0.0,-1.166693212777782
mp-12564,LiSbAu,True,3.316660386215451e-16,6.444962,6.444962,6.444962,267.7078358180697,0.0,-0.323932655202019
mp-30452,DyNiBi,True,3.319558940619482e-16,6.43371176019156,6.43371176019156,6.43371176019156,266.3083598744578,0.20840000000000003,-0.668153847222222
mp-3432,ScNiSb,True,3.3229118826443674e-16,6.082801200440168,6.082801200440168,6.082801200440168,225.06650603407863,0.2679,-0.9635939116666631
mp-1100443,KNaSe,True,3.335866513876457e-16,7.04159,7.04159,7.04159,349.1501262294917,2.0636,-1.058994623657686
mp-1207088,ZnFeBi,True,3.3608436554326295e-16,6.52438,6.52438,6.52438,277.72676998689167,0.0,0.712960349999998
mp-961681,ZrGePt,True,3.392422658273194e-16,6.342686,6.342686,6.342686,255.16413738579428,0.0,-0.472756888333331
mp-1100413,TiCuB,True,3.4027586045038355e-16,5.236726,5.236726,5.236726,143.60830392158044,0.17930000000000001,-0.237408117743055
mp-20514,GdSnAu,True,3.4241968219531323e-16,6.7492676635122395,6.7492676635122395,6.7492676635122395,307.44678461635027,0.0,-0.915463206666667
mp-36526,AcOF,True,3.424569439681259e-16,5.947453499538033,5.947453499538033,5.947453499538033,210.37453328693556,4.256600000000001,-4.159415700833336
mp-31457,ZrSbRu,True,3.437201130109203e-16,6.316679926392015,6.316679926392015,6.316679926392015,252.03834183313543,0.0,-0.667661066666667
mp-1008911,LiMnAs,True,3.455599600506319e-16,6.015235999999999,6.015235999999999,6.015235999999999,217.64966997934735,0.0,-0.287034042921456
mp-1063388,MnNiP,True,3.455805982055936e-16,5.311522,5.311522,5.311522,149.8500712977158,0.0,-0.239718967524629
mp-1216635,TiSnIr,True,3.475831231170223e-16,6.177054039999999,6.177054039999999,6.177054039999999,235.69165302905398,0.0,-0.5687147961111131
mp-1206908,TiSbRh,True,3.551445795354814e-16,6.22166,6.22166,6.22166,240.8345676560703,0.0,-0.33756545111111
mp-20275,CeGeAu,True,3.573778875954366e-16,6.709583999999997,6.709583999999997,6.709583999999997,302.05552440674484,0.0,-0.608225428333332
mp-1021660,NbInRu,True,3.5934937840402836e-16,6.262244,6.262244,6.262244,245.57828150186583,0.0,0.11360931708334
mp-631440,BiTeIr,True,3.680034516478108e-16,6.888187999999997,6.888187999999997,6.888187999999997,326.8247785251706,0.0,0.9243571516666591
mp-961647,CaAgP,True,3.6844049881525614e-16,6.68288,6.68288,6.68288,298.46333577966385,0.0,-0.17562905765873102
mp-1100416,TaBiRu,True,3.8069699412790293e-16,6.43650158505801,6.43650158505801,6.43650158505801,266.6549448270541,0.0,0.601300452925926
mp-631257,AsSeBr,True,3.9923547298094964e-16,6.828305999999998,6.828305999999998,6.828305999999998,318.37497608418016,0.0,0.226682451718749
mp-1207057,TmBiPt,True,4.036903990656113e-16,6.6400282,6.6400282,6.6400282,292.75867399600116,0.0,-1.16265573166666
mp-961660,TiFeSe,True,4.074389142770003e-16,5.619319999999999,5.619319999999999,5.619319999999999,177.4399036197495,0.860599999999999,-0.740190481892361
mp-31142,YbBiAu,True,4.2742298264136847e-16,6.957120825018454,6.957120825018454,6.957120825018454,336.73529353563674,0.0,-0.49401870999999603
mp-961716,VSnPt,True,4.2930152682228024e-16,6.175552,6.175552,6.175552,235.51975933480978,0.0,-0.29587866833333204
mp-1008873,MnCoSe,True,4.503625198625743e-16,5.627288,5.627288,5.627288,178.19578522665756,0.0,-0.209525096758261