material_id,formula_pretty,is_fit,rms_A,a_A,b_A,c_A,volume_A3,band_gap,formation_energy_per_atom
mp-1018135,LiCdAs,True,1.8885616479447955e-16,6.27708032,6.27708032,6.27708032,247.3278700541448,0.0,-0.46004126361110903
mp-11830,LiCeSn,True,1.8904247187033932e-16,6.739732,6.739732,6.739732,306.14550166186206,0.0,-0.36155916611110905
mp-1100435,ZrCuB,True,1.8909097440305737e-16,5.534584,5.534584,5.534584,169.53327423972286,0.25919999999999904,-0.23298990305555603
mp-9437,NbFeSb,True,1.896482727389892e-16,5.941343040165678,5.941343040165678,5.941343040165678,209.72677802133936,0.513799999999999,-0.402070886666668
mp-30459,ScNiBi,True,1.8968141624583084e-16,6.222579452145211,6.222579452145211,6.222579452145211,240.94135680196595,0.1869,-0.626136915000001
mp-1206684,TiSnRh,True,1.8969570576328425e-16,6.22448,6.22448,6.22448,241.16219469957937,0.0,-0.11759556277777701
mp-961682,TiSnPd,True,1.9040217627168894e-16,6.175557955400408,6.175557955400408,6.175557955400408,235.52044070668885,0.20389999999999903,-0.6324236455555551
mp-1018136,LaBiPt,True,1.905535612424612e-16,6.936468219999999,6.936468219999999,6.936468219999999,333.74533393596704,0.0,-1.179911560000003
mp-924130,TiNiSn,True,1.9058519328431508e-16,5.906882041566931,5.906882041566931,5.906882041566931,206.09853024296672,0.45270000000000005,-0.529422349444445
mp-12558,LiMgAs,True,1.9070116506588693e-16,6.1562085698955515,6.1562085698955515,6.1562085698955515,233.31355732391688,1.372299999999999,-0.8998631680555551
mp-623646,TiNiSn,True,1.9087882740804909e-16,6.144754,6.144754,6.144754,232.01363210414755,0.0,0.134768280555556
mp-1009541,CsRbN,True,1.9162070361044823e-16,7.3675299999999995,7.3675299999999995,7.3675299999999995,399.9131996468297,0.0,0.646898569281608
mp-1221625,MnCoSb,True,1.9187591232742336e-16,5.82768,5.82768,5.82768,197.91881838168882,0.0,0.148180990689655
mp-1100406,NbAsRu,True,1.9192369188377612e-16,6.078030000000001,6.078030000000001,6.078030000000001,224.53731135597076,0.0,0.09515401416666601
mp-961657,YNiP,True,1.9211174437592776e-16,5.971126000000001,5.971126000000001,5.971126000000001,212.8965906692869,0.6031999999999991,-0.9055863148809511
mp-631301,HgPRh,True,1.9251209246407378e-16,6.243424,6.243424,6.243424,243.37081053642893,0.0,0.749615553174602
mp-961664,VSnPd,True,1.9270828442645897e-16,6.157481999999999,6.157481999999999,6.157481999999999,233.45837209082248,0.0,-0.047391654015148006
mp-1100411,CaCdSn,True,1.9290217317458234e-16,7.019279999999999,7.019279999999999,7.019279999999999,345.8419732531306,0.0,-0.39687956833333204
mp-631505,BeCuBr,True,1.9293026108721884e-16,6.014774,6.014774,6.014774,217.59952410410486,0.076999999999999,0.5713827866666661
mp-1215892,YSbPd,True,1.9295098932859943e-16,6.902246000000001,6.902246000000001,6.902246000000001,328.8299006128113,0.0,-0.48368950666666405
mp-961661,ZrSiPd,True,1.9296194831254098e-16,6.114316,6.114316,6.114316,228.58284855979826,0.31470000000000004,-0.800975419166675
mp-568931,YbNiSb,True,1.9344998604966182e-16,6.231769470419873,6.231769470419873,6.231769470419873,242.01046035978652,0.0,-1.001248031666667
mp-20768,ZnFeSb,True,1.9363055648380205e-16,6.220152,6.220152,6.220152,240.6594903415241,0.0,0.384010316666666
mp-961717,VInPt,True,1.9389823322218446e-16,6.20299,6.20299,6.20299,238.67297311259088,0.0,0.131659474444444
mp-1100420,NaCaSb,True,1.9391016822499002e-16,7.106728,7.106728,7.106728,358.9294399100088,0.824099999999999,-0.547006017126435
mp-1100410,TaPRu,True,1.9396942533192625e-16,5.950500000000001,5.950500000000001,5.950500000000001,210.69798321262508,0.0,-0.009313285936509002
mp-672385,UNiSn,True,1.941432567378942e-16,6.68233,6.68233,6.68233,298.3896513838054,0.0,0.6011161216666691
mp-961719,HfAsRh,True,1.9427028954956614e-16,6.241046,6.241046,6.241046,243.09283067179598,0.0,-0.36594776249999905
mp-1009014,LiCuO,True,1.9448310375824585e-16,4.93259,4.93259,4.93259,120.012105303173,0.0,-1.031819572777777
mp-1100428,LiYSi,True,1.9449981908530002e-16,6.657852000000001,6.657852000000001,6.657852000000001,295.12256068949137,0.39690000000000003,0.096882362222221
mp-1228803,AlNiGe,True,1.9497563517748127e-16,5.643855999999997,5.643855999999997,5.643855999999997,179.7743690891467,0.0,-0.42597598833333206
mp-961700,TiCoAs,True,1.9585204421092494e-16,5.836652,5.836652,5.836652,198.834343699574,0.0,-0.23487453222222102
mp-568891,MnSbRh,True,1.9603937783873334e-16,6.128913999999999,6.128913999999999,6.128913999999999,230.2239931476115,0.0,-0.16093219097126601
mp-1062162,MnNiGe,True,1.9614820476173725e-16,5.57658,5.57658,5.57658,173.4218482937343,0.0,-0.15112398097701002
mp-962065,SrCaSn,True,1.9687142959479052e-16,7.7018200000000006,7.7018200000000006,7.7018200000000006,456.85679992246867,0.158199999999999,-0.054899408333332005
mp-1008867,NaCuO,True,1.9695062262154408e-16,5.350866,5.350866,5.350866,153.20474829244324,0.0,-0.6863907787931021
mp-30449,MgCuBi,True,1.971446527668162e-16,6.4323939999999995,6.4323939999999995,6.4323939999999995,266.14475664106294,0.0,-0.09895257833333301
mp-1100409,LiCaSb,True,1.9747161246811608e-16,6.69819,6.69819,6.69819,300.5193131436803,0.9841000000000001,-0.8429311677777771
mp-5920,LiAlGe,True,1.9787997290923042e-16,5.955868498642627,5.955868498642627,5.955868498642627,211.26876851277598,0.052699999999999005,-0.291353459444444
mp-961685,NaCaAs,True,1.9794908809022944e-16,6.921518345778773,6.921518345778773,6.921518345778773,331.59206020296443,1.5818999999999992,-1.0461259208333331
mp-5676,MnSbPt,True,1.9863648263195636e-16,6.206118319999999,6.206118319999999,6.206118319999999,239.03426116084907,0.0,-0.364117662643674
mp-631429,ZrCrFe,True,1.9957376530689213e-16,5.855202000000001,5.855202000000001,5.855202000000001,200.73617639288062,0.0,0.7330680966666651
mp-631497,BeInBi,True,2.0050139158740463e-16,7.019389999999999,7.019389999999999,7.019389999999999,345.8582327041988,0.0,0.7127795761111101
mp-631269,LiIrRh,True,2.0129865853178382e-16,5.525076000000001,5.525076000000001,5.525076000000001,168.66103806323775,0.0,0.5839936288888811
mp-3522,MgCuSb,True,2.0182431529543837e-16,6.1833747000598125,6.1833747000598125,6.1833747000598125,236.4159068667794,0.0,-0.32565874499999803
mp-1227052,CaHF,True,2.0182457182878186e-16,5.480197999999999,5.480197999999999,5.480197999999999,164.5844307021214,4.674,-2.426918358749999
mp-1100414,VSiRh,True,2.018907071067952e-16,5.721582000000001,5.721582000000001,5.721582000000001,187.3045724771032,0.24910000000000002,-0.5962275938450401
mp-10687,LiCdP,True,2.027296458594202e-16,5.958042,5.958042,5.958042,211.50015066179378,0.0,-0.20471346696427903
mp-1018106,YbBiPt,True,2.029138059440693e-16,6.6269158055706425,6.6269158055706425,6.6269158055706425,291.0277212910844,0.0,-1.158377599999994
mp-631267,TaFeSb,True,2.0329961552201738e-16,6.182962,6.182962,6.182962,236.36857235203865,0.0,0.464764864222222
mp-1100419,HfTeRu,True,2.0350679317491886e-16,6.363109642532926,6.363109642532926,6.363109642532926,257.63699192111653,0.0,0.253267908333332
mp-3477,MgAgAs,True,2.0364906493594788e-16,6.297990000000001,6.297990000000001,6.297990000000001,249.80774564976954,0.0,-0.19340981472222102
mp-16314,TmSbPt,True,2.037628322067288e-16,6.515636342246303,6.515636342246303,6.515636342246303,276.611677859107,0.0,-1.378186306666667
mp-5944,MnSbAu,True,2.0414636614848552e-16,6.460254,6.460254,6.460254,269.6179367295365,0.0,-0.09402536482758701
mp-631352,NbSnRu,True,2.0478448315984488e-16,6.283956,6.283956,6.283956,248.14150183790537,0.0,0.596433260448719
mp-1100398,LiBeSb,True,2.0519821687598177e-16,5.903028,5.903028,5.903028,205.69537635523986,1.010499999999999,-0.325963126111111
mp-36111,LiMgP,True,2.0527128715387021e-16,5.977452437033649,5.977452437033649,5.977452437033649,213.574002803343,1.7113,-0.75129741765873
mp-3161,LiAlSi,True,2.0551820815860842e-16,5.907883909583787,5.907883909583787,5.907883909583787,206.20341732960415,0.112099999999999,-0.19126816777777703
mp-11361,MgCuSn,True,2.055519253110245e-16,6.181924681552648,6.181924681552648,6.181924681552648,236.24962530988273,0.0,-0.167420896666666
mp-962057,SrCaSi,True,2.0559453669243402e-16,7.28282,7.28282,7.28282,386.2768921668418,0.45409999999999906,0.18183951416666602
mp-631570,BaTaB,True,2.0594170848616487e-16,6.378494,6.378494,6.378494,259.5102129275934,0.0,1.513706677833334
mp-1100440,NaScSn,True,2.0639600871109248e-16,7.007388,7.007388,7.007388,344.08718263667976,0.30399999999999905,-0.026545640793652
mp-631382,YMgCu,True,2.064376617529648e-16,6.785668,6.785668,6.785668,312.44805230308765,0.0,0.5587431983333331
mp-962059,SrMgSi,True,2.0645291069625756e-16,7.222386,7.222386,7.222386,376.74030641107686,0.0,0.513711171666666
mp-962063,LaMgTl,True,2.0713260559576425e-16,7.175064,7.175064,7.175064,369.38336874316667,0.0,-0.08727410111111401
mp-962071,MgScTl,True,2.0776907123324303e-16,6.915076,6.915076,6.915076,330.6670133221235,0.0,0.255079955555553
mp-631521,BaHfMo,True,2.0801962506554864e-16,6.898428,6.898428,6.898428,328.2845223896241,0.0,1.187178816666667
mp-2210612,MgCuS,True,2.0817024195786278e-16,6.027393055865272,6.027393055865272,6.027393055865272,218.9719774198107,0.0,-0.25690221083333203
mp-1100423,VGeRh,True,2.0824662722010512e-16,5.807866,5.807866,5.807866,195.90691381353489,0.0,-0.076892295
mp-961654,TaMnAs,True,2.0918989108606605e-16,6.062884,6.062884,6.062884,222.86289982253766,0.0,0.40529153907854304
mp-631544,BaSiB,True,2.0941950741777966e-16,6.80651,6.80651,6.80651,315.3359320299345,0.0,1.162864000277778
mp-1207188,SmSbPt,True,2.096664221078332e-16,6.790488,6.790488,6.790488,313.11434025350945,0.0,-0.6470370750000001
mp-1008631,VCoTe,True,2.1005138574554722e-16,5.864667999999999,5.864667999999999,5.864667999999999,201.71133093225458,0.0,-0.153596478888889
mp-1009006,LiCdAs,True,2.1006892569598964e-16,6.13032,6.13032,6.13032,230.3824727071688,0.0,-0.20370357694444402
mp-1100436,LiInSi,True,2.104250324314351e-16,6.105529999999999,6.105529999999999,6.105529999999999,227.59887369958224,0.0,0.170302643333333
mp-1222280,LiInSn,True,2.108451544649559e-16,6.71477562,6.71477562,6.71477562,302.75722418202014,0.0,-0.20924103833333102
mp-31454,TaSbRu,True,2.1148626373471732e-16,6.158502656984395,6.158502656984395,6.158502656984395,233.57448469207134,0.665,-0.46037054744444106
mp-961724,ZrBiRh,True,2.119973658349188e-16,6.641984,6.641984,6.641984,293.017443717229,0.0,-0.0020219666666670003
mp-631533,PPbW,True,2.1244058973631772e-16,6.614298000000001,6.614298000000001,6.614298000000001,289.3685133324995,0.0,1.884796629841261
mp-1207185,LuBiPd,True,2.1269521758584767e-16,6.59847088,6.59847088,6.59847088,287.29622089134244,0.0,-0.9865517138888911
mp-631537,BeReB,True,2.1338712184473055e-16,5.172896,5.172896,5.172896,138.42076378700438,0.0,0.8464212311111101
mp-1100437,BaCaSi,True,2.1355058176083815e-16,7.3639318233587465,7.3639318233587465,7.3639318233587465,399.32755329653196,0.39069999999999905,0.091361406666666
mp-1008903,MgAgSb,True,2.1408278409205328e-16,6.51321278,6.51321278,6.51321278,276.3031264339837,0.0,-0.27852765555555203
mp-961645,LiAlGe,True,2.1445994636933459e-16,5.881856,5.881856,5.881856,203.49004303073647,0.0,0.04904599388888901
mp-1206681,ScBiPd,True,2.1465612505308677e-16,6.478466,6.478466,6.478466,271.90459792094293,0.0,-0.8959378066666651
mp-631404,CrIrRu,True,2.1517033520390392e-16,5.843082,5.843082,5.843082,199.49221082451956,0.0,0.62380179555556
mp-636240,MgCuSn,True,2.1596360519870527e-16,6.40026,6.40026,6.40026,262.17595009793763,0.0,0.09506045
mp-631562,SiBAu,True,2.1620894084111339e-16,5.637414,5.637414,5.637414,179.1594782566467,0.0,0.901577752361106
mp-631342,MnTcPd,True,2.162121886439736e-16,5.786905999999999,5.786905999999999,5.786905999999999,193.7935345543429,0.0,0.47577600902298706
mp-961676,HfGePt,True,2.1785624033652704e-16,6.289538,6.289538,6.289538,248.80335718498972,0.0,-0.46742184833334005
mp-961720,ZrAsRh,True,2.1822409848229515e-16,6.28291,6.28291,6.28291,248.0176087956462,0.0,-0.354964272499999
mp-631430,LaInW,True,2.1868577421235631e-16,6.827092,6.827092,6.827092,318.205195244756,0.0,0.7566476949999981
mp-19886,ThSnPt,True,2.1913881974867016e-16,6.798892648031452,6.798892648031452,6.798892648031452,314.27841314862417,0.6738000000000001,-1.192033330000005
mp-1009020,KCuO,True,2.1920451778106845e-16,5.872664,5.872664,5.872664,202.53750754004474,0.0,-0.35897504408333203
mp-961723,LiCaRh,True,2.1924695838386716e-16,6.21,6.21,6.21,239.48306099999996,0.253099999999999,0.061849753148147
mp-4142,MnSbPd,True,2.202446458728837e-16,6.153866,6.153866,6.153866,233.04731616566923,0.0,-0.09383622264367701
mp-22377,ZrCoSb,True,2.2063057764498309e-16,6.323992,6.323992,6.323992,252.91462039379016,0.0,0.069383304166656
mp-15778,MgNiSb,True,2.2094590228520675e-16,6.03397816447491,6.03397816447491,6.03397816447491,219.69046227351285,0.0,-0.46046171499999805
mp-631256,FeNiMo,True,2.2148027916542717e-16,5.578802,5.578802,5.578802,173.62923180199556,0.0,0.5593453566666651
mp-1093991,ZrAsIr,True,2.2160658930910111e-16,6.12594588,6.12594588,6.12594588,229.8896754038811,0.269499999999999,-0.9066538391666671
mp-10182,LiZnP,True,2.2249934309632346e-16,5.70002405974643,5.70002405974643,5.70002405974643,185.19534511338324,1.3386,-0.655819149880952
mp-30377,ErPbAu,True,2.2316635487163044e-16,6.74301051823613,6.74301051823613,6.74301051823613,306.59248914026534,0.0,-0.657796673333332
mp-961707,LaNiSb,True,2.238562429572032e-16,6.887666,6.887666,6.887666,326.750481944068,0.0,-0.33136047833333304
mp-10194,LuSbPt,True,2.2440941409410146e-16,6.483278483194337,6.483278483194337,6.483278483194337,272.5109954473171,0.0,-1.3663540288888871
mp-10981,YbSbPd,True,2.2613146207303566e-16,6.749762917739432,6.749762917739432,6.749762917739432,307.5144699567072,0.0,-0.514398261666665
mp-631541,BeGeB,True,2.2950504687989844e-16,5.132846,5.132846,5.132846,135.230515369881,0.0,0.7571133102777781
mp-16246,CdSbAu,True,2.2967779072919134e-16,6.604353237367543,6.604353237367543,6.604353237367543,288.06525636506376,0.0,-0.128421373333334
mp-631754,ReSnGe,True,2.324937341007842e-16,6.21282,6.21282,6.21282,239.80946146163774,0.0,0.951728916428569
mp-1008876,MnCoS,True,2.3425017680135853e-16,5.439999999999998,5.439999999999998,5.439999999999998,160.9891839999998,0.0,-0.21196902514367802
mp-631303,InReGe,True,2.3491552411826024e-16,6.254420333333385,6.254420333333385,6.254420333333385,244.65899926162865,0.0,0.6636675047619081
mp-631388,CdIrRu,True,2.349465276216993e-16,6.083776,6.083776,6.083776,225.17472750216916,0.0,0.622512745477645
mp-22589,TiFeSn,True,2.354745708410791e-16,6.224757999999999,6.224757999999999,6.224757999999999,241.19450876491837,0.0,0.40751253388888903
mp-961670,HfSiPt,True,2.3581111850883627e-16,6.039246000000001,6.039246000000001,6.039246000000001,220.26635292188138,0.0,-0.6831251216666631
mp-961694,TiNiGe,True,2.364616379774388e-16,5.839228000000001,5.839228000000001,5.839228000000001,199.09772587157968,0.0,-0.012492179444444002
mp-1008872,MnFeTe,True,2.370654256586876e-16,5.846368000000001,5.846368000000001,5.846368000000001,199.82896810158005,0.0,-0.10858567153256701
mp-961666,MnNbAs,True,2.371888662907468e-16,5.96929,5.96929,5.96929,212.70026691107307,0.0,0.32608087152298704
mp-631523,TcNiW,True,2.3737986038969546e-16,5.835528,5.835528,5.835528,198.71949355966115,0.0,0.6658518000000031
mp-631543,AlInB,True,2.3813949306337527e-16,6.0266139999999995,6.0266139999999995,6.0266139999999995,218.8870803407571,0.0,1.047582126033333
mp-1100429,KSrSb,True,2.3857815184553645e-16,7.866629085056803,7.866629085056803,7.866629085056803,486.81731917848515,1.5750000000000002,-0.541590419083333
mp-36033,PrOF,True,2.400501213863708e-16,5.706424000000001,5.706424000000001,5.706424000000001,185.81985322407388,5.163699999999999,-4.072142553888889
mp-1100394,MgScB,True,2.403351556602671e-16,5.814021999999999,5.814021999999999,5.814021999999999,196.5305241237778,0.1575,-0.092182583055554
mp-961669,NbGaPt,True,2.419203160801008e-16,6.155117999999999,6.155117999999999,6.155117999999999,233.1895850769582,0.0,-0.088440139166665
mp-631280,MnTcOs,True,2.4308349715380086e-16,5.841165999999998,5.841165999999998,5.841165999999998,199.2960292098061,0.0,0.631918567772994
mp-631566,TaAuBr,True,2.4377116270164444e-16,6.318442,6.318442,6.318442,252.2493232414396,0.0,0.9427529792222231
mp-1100393,LiAgSe,True,2.447252484373854e-16,6.074574000000001,6.074574000000001,6.074574000000001,224.1545097935729,0.21399999999999902,-0.6178952589930561
mp-567435,UNiSn,True,2.4554665882914496e-16,6.962308,6.962308,6.962308,337.4890568756148,0.0,0.8579868583333361
mp-961711,ZrSiPt,True,2.464036961018027e-16,6.142388,6.142388,6.142388,231.7457289888782,1.026599999999999,-1.1008890416666661
mp-620271,GdBiPt,True,2.4661894343410326e-16,6.74852074,6.74852074,6.74852074,307.3447229567685,0.0,-1.020906396666664
mp-1216949,TiCoSn,True,2.4741939200305293e-16,5.95108,5.95108,5.95108,210.75959992149973,0.0,-0.316109056111111
mp-631572,GaReAs,True,2.498087085261531e-16,6.016716,6.016716,6.016716,217.8103623146705,0.0,0.9276726375000001
mp-1206984,ZrSbRh,True,2.531044129424039e-16,6.523396000000001,6.523396000000001,6.523396000000001,277.60112957624654,0.0,-0.29374345499999704
mp-1100430,LiZnSb,True,2.533258844327936e-16,6.344540817589849,6.344540817589849,6.344540817589849,255.38805893001455,0.000299999999999,-0.446482040555553
mp-1100439,YSeBr,True,2.5379337357371603e-16,7.002878,7.002878,7.002878,343.4232399644021,1.545799999999999,-1.375550599114583
mp-568470,ZrNiSn,True,2.5476955570489823e-16,6.467348,6.467348,6.467348,270.5071141734969,0.0,0.20530351166666702
mp-1100401,YCdB,True,2.557036901561536e-16,6.13484,6.13484,6.13484,230.89244449816385,0.43160000000000004,-0.037992936388887004
mp-20415,GdPbAu,True,2.557949255550782e-16,6.8433092144645675,6.8433092144645675,6.8433092144645675,320.47819950147493,0.0,-0.782890306666663
mp-568075,NbCoSn,True,2.5681114538534255e-16,6.223486,6.223486,6.223486,241.04667808953994,0.0,0.5555590383333331
mp-631464,KBePt,True,2.572949515175697e-16,6.517154000000001,6.517154000000001,6.517154000000001,276.80501261219325,0.0,0.747810549249999
mp-631324,HfMnTl,True,2.5839456432145953e-16,6.465936,6.465936,6.465936,270.32997541750194,0.0,0.9451384967001951
mp-11869,HfSnPd,True,2.5846469885364923e-16,6.3186585678236336,6.3186585678236336,6.3186585678236336,252.27526205329008,0.033800000000000004,-0.782001370000003
mp-1100432,ScSiAg,True,2.620986578892766e-16,6.3822974352370165,6.3822974352370165,6.3822974352370165,259.97472020562515,0.0,0.075430832777776
mp-34611,ZnAgAs,True,2.629345397776644e-16,6.240584000000001,6.240584000000001,6.240584000000001,243.03884905996762,0.0,0.039595513611111
mp-22541,MnNiSb,True,2.6410591679092583e-16,5.922962000000001,5.922962000000001,5.922962000000001,207.7862661527525,0.0,-0.106324901494249
mp-961697,ScGeAu,True,2.647408668148098e-16,6.293574,6.293574,6.293574,249.28263636134446,0.27390000000000003,-0.7613223916666431
mp-5967,TiCoSb,True,2.657786938092891e-16,5.856694968174344,5.856694968174344,5.856694968174344,200.88976758173527,1.043199999999999,-0.658718782222221
mp-961699,NaMgP,True,2.6769802563082816e-16,6.327276,6.327276,6.327276,253.3088348381297,0.0,0.133527832992611
mp-12719,LiNdSn,True,2.6901880249140556e-16,6.739556,6.739556,6.739556,306.1215184228024,0.0,-0.49794767194444306
mp-583030,MnSnPt,True,2.703835767006904e-16,6.128524,6.128524,6.128524,230.18004654759704,0.0,-0.083635544310344
mp-11839,GdSbPt,True,2.7116841500838704e-16,6.628524495679791,6.628524495679791,6.628524495679791,291.23971451200623,0.0,-1.189332089999997
mp-1225652,CuAgTe,True,2.7451462003992983e-16,6.486388000000001,6.486388000000001,6.486388000000001,272.9032895654876,0.0,0.07912192416666601
mp-962072,KYSn,True,2.74846835628795e-16,7.532812,7.532812,7.532812,427.4362844415364,0.7193,0.113269809250001
mp-505297,NbSbRu,True,2.7823317654937e-16,6.175680472710913,6.175680472710913,6.175680472710913,235.53445850247638,0.377299999999999,-0.515632994999999
mp-1009132,HoBiPd,True,2.8006489677979673e-16,6.66008002,6.66008002,6.66008002,295.4189441332724,0.0,-1.03782529