material_id,formula_pretty,is_fit,rms_A,a_A,b_A,c_A,volume_A3,band_gap,formation_energy_per_atom
mp-37906,LiMgN,True,1.388842427217684e-16,4.957088713079906,4.957088713079906,4.957088713079906,121.80919514324695,2.4462,-0.8117910368055551
mp-1008866,NaAgO,True,1.4001133312111053e-16,5.710362,5.710362,5.710362,186.20482129743112,0.0,-0.7450613493486581
mp-962073,KBaSn,True,1.4016001086507472e-16,8.072526,8.072526,8.072526,526.0516139844835,0.0,0.035810862583333006
mp-961774,BaNaSb,True,1.4057836724069891e-16,7.552518,7.552518,7.552518,430.7996155093035,0.42289999999999905,-0.694239730459769
mp-10755,TiFeSb,True,1.4220169453734253e-16,5.99711787422153,5.99711787422153,5.99711787422153,215.68887991166648,0.0,-0.431601187777778
mp-1062306,MnSiNi,True,1.431606611465396e-16,5.461886,5.461886,5.461886,162.94006830310295,0.0,-0.332069869827587
mp-631515,CaHfZn,True,1.43200387109891e-16,6.82357,6.82357,6.82357,317.7129766101533,0.0,0.920329686666668
mp-631322,KSnOs,True,1.4324746142570696e-16,6.704756,6.704756,6.704756,301.40394528025206,0.0,1.114672475916667
mp-1008624,YBiPd,True,1.4457998531590357e-16,6.693968780000001,6.693968780000001,6.693968780000001,299.9515065330661,0.0,-1.041455978333331
mp-1009543,DyBiPd,True,1.4476799611536775e-16,6.676593100000001,6.676593100000001,6.676593100000001,297.62179240040723,0.0,-1.049426923333338
mp-30466,YbBiPd,True,1.454680297852936e-16,6.612488374701294,6.612488374701294,6.612488374701294,289.13107075179886,0.0,-1.008552173333332
mp-962058,YSeCl,True,1.4739885252998002e-16,6.869744,6.869744,6.869744,324.20645713148014,1.8941000000000001,-1.518122209131955
mp-962076,SrCdSi,True,1.4743793356344654e-16,7.295234,7.295234,7.295234,388.25555692489786,0.0,0.42236583333333305
mp-631492,BaScIr,True,1.4778546482959437e-16,6.833848,6.833848,6.833848,319.1508053561387,0.0,0.901431278333333
mp-631517,BaBeGa,True,1.4876915344460636e-16,7.338852,7.338852,7.338852,395.2613854523332,0.0,0.8494060525
mp-631270,ZnFePb,True,1.4892483725153803e-16,6.21574,6.21574,6.21574,240.14774880490725,0.0,0.7816588900000011
mp-1018118,TmSbPd,True,1.490929392312464e-16,6.692649999999998,6.692649999999998,6.692649999999998,299.77426095518433,0.35590000000000005,-0.766460703602144
mp-21272,ErNiSb,True,1.4941050353041865e-16,6.268126843401226,6.268126843401226,6.268126843401226,246.27103133821305,0.27390000000000003,-0.9674753699999991
mp-1100424,LiMgSb,True,1.4973896318450176e-16,6.656702,6.656702,6.656702,294.9696589762722,1.1328,-0.43539792944444405
mp-5640,ErSnAu,True,1.499136186774567e-16,6.641200375477404,6.641200375477404,6.641200375477404,292.91374492842897,0.006099999999999,-0.8443013916666671
mp-631390,SrZrZn,True,1.508258651028485e-16,6.971176,6.971176,6.971176,338.7802953348545,0.0,0.855029464444444
mp-1009048,KAgO,True,1.509677149518225e-16,6.139484,6.139484,6.139484,231.41718992349817,0.0,-0.5784837046388871
mp-11480,MnSnIr,True,1.5097253475250273e-16,6.139092000000001,6.139092000000001,6.139092000000001,231.37286547547833,0.0,0.285199079022988
mp-631254,KMnRu,True,1.5117549065361847e-16,6.530794,6.530794,6.530794,278.5466599745418,0.0,1.515212659517239
mp-569197,GdNiSb,True,1.5147472180085138e-16,6.374517083444566,6.374517083444566,6.374517083444566,259.025110743091,0.0,-0.9520464433333321
mp-22027,MnSnAu,True,1.5162323379876585e-16,6.383004,6.383004,6.383004,260.06107279957433,0.0,-0.171871310804595
mp-631314,KTaPt,True,1.5180607976894593e-16,6.47665,6.47665,6.47665,271.67600660780465,0.0,1.166402431805556
mp-1206686,TbNiBi,True,1.52069048618605e-16,6.454269579999999,6.454269579999999,6.454269579999999,268.8693534208952,0.23010000000000003,-0.674196568888888
mp-621592,YPbAu,True,1.523877993042461e-16,6.79760124,6.79760124,6.79760124,314.09936138160793,0.0,-0.8253234799999991
mp-1977567,FeSbPt,True,1.5276929782642322e-16,5.995534,5.995534,5.995534,215.51803092373297,0.0,-0.016417899999999
mp-961712,TaTlPt,True,1.5278020282195842e-16,6.325744,6.325744,6.325744,253.12488118375748,0.9663,-0.035423306888890005
mp-961713,ZrSnPt,True,1.529401331932166e-16,6.380957184692478,6.380957184692478,6.380957184692478,259.810974422783,0.9627999999999991,-1.167385201666666
mp-631422,CuSiBr,True,1.538406144037943e-16,6.306476,6.306476,6.306476,250.8188902306806,0.0,0.5012402783333331
mp-570213,LiMgBi,True,1.5429203034545047e-16,6.780798438101722,6.780798438101722,6.780798438101722,311.7758737334338,0.3587,-0.396783942777777
mp-567480,MnSbPt,True,1.544092550556229e-16,6.260112,6.260112,6.260112,245.3275432691778,0.0,0.007006574022989
mp-962077,TiAuCl,True,1.553242026772088e-16,6.186578,6.186578,6.186578,236.78352333358796,0.0,0.144590312638882
mp-581712,TiNiSb,True,1.5547533901202014e-16,6.174556,6.174556,6.174556,235.4058230343569,0.0,-0.10099648111111001
mp-1226720,CdSnAu,True,1.5547700281483573e-16,6.560325340000001,6.560325340000001,6.560325340000001,282.34241973735817,0.0,-0.19565236666666802
mp-672356,MnSbPt,True,1.5576698474365767e-16,6.142354,6.142354,6.142354,231.741880659285,0.0,-0.097935512643677
mp-961679,TaAlPt,True,1.559043371957638e-16,6.140622,6.140622,6.140622,231.54589858024386,0.0,-0.014324575777777002
mp-1100402,YHgB,True,1.5593039285441507e-16,6.138569999999999,6.138569999999999,6.138569999999999,231.31385038013363,0.3563,-0.12020565395834101
mp-631518,ZrBTe,True,1.564616264659125e-16,6.478016,6.478016,6.478016,271.8479416522071,0.0,0.626906049166665
mp-631364,TaOsPb,True,1.5733490309237058e-16,6.406303999999998,6.406303999999998,6.406303999999998,262.9193987865105,0.0,0.805066687714277
mp-631274,KFeP,True,1.5742275186519458e-16,6.3991560000000005,6.3991560000000005,6.3991560000000005,262.04030295625006,0.0,0.704397532702381
mp-1206694,MnGaIr,True,1.5746826830084414e-16,5.824386,5.824386,5.824386,197.58339700152356,0.0,0.05975458152298901
mp-631349,ZnTcMo,True,1.579002505398265e-16,5.986363999999999,5.986363999999999,5.986363999999999,214.5306563934433,0.0,0.680993743412704
mp-1100415,ZrSbRh,True,1.5866320378788422e-16,6.29948808,6.29948808,6.29948808,249.98605063843925,1.1648,-1.1401938883333331
mp-631472,InFeAs,True,1.5888948656266891e-16,6.281558,6.281558,6.281558,247.85753281691964,0.0,0.7441179919444441
mp-631531,NbBW,True,1.5905336576680374e-16,5.899878,5.899878,5.899878,205.366259803445,0.0,1.6003860124999911
mp-961706,TiSiPt,True,1.590581646423763e-16,5.899522,5.899522,5.899522,205.3290865040576,0.9013,-1.010377284722219
mp-631311,IrOsW,True,1.5944045432514333e-16,5.992764,5.992764,5.992764,215.21945409565328,0.0,0.5657257294444561
mp-5549,MgSnAu,True,1.5992564755748776e-16,6.4386878787874595,6.4386878787874595,6.4386878787874595,266.926762089291,0.0,-0.434026843333333
mp-961663,SrTePd,True,1.5996767485197833e-16,6.926246,6.926246,6.926246,332.2719935067043,0.6743,-1.041616672222221
mp-961689,ZrCoAs,True,1.5997690992376227e-16,6.196452,6.196452,6.196452,237.91907873779107,0.0,-0.026689102500000002
mp-4076,VCoSb,True,1.6020604307327125e-16,5.815284558913195,5.815284558913195,5.815284558913195,196.65858620496013,0.0,-0.189397489999999
mp-1100408,TaSnRh,True,1.6042398491558434e-16,6.16196316,6.16196316,6.16196316,233.96844708172202,1.0594,-0.44028700411110805
mp-631449,LiTaBe,True,1.60840677101751e-16,5.769484000000001,5.769484000000001,5.769484000000001,192.0485001995541,0.0,1.320138884777777
mp-20453,TiCoSn,True,1.609177769784491e-16,6.124204,6.124204,6.124204,229.69362745468962,0.0,0.307187757222222
mp-962061,YMgTl,True,1.614535816050448e-16,7.15720414,7.15720414,7.15720414,366.6318695624731,0.0,0.34650598388888704
mp-1100392,LiSiB,True,1.6146271680433701e-16,5.009476,5.009476,5.009476,125.71204776953343,0.285299999999999,-0.138751264166666
mp-569779,ScSbPd,True,1.6158566364557079e-16,6.350015658491098,6.350015658491098,6.350015658491098,256.0497691731927,0.015500000000000002,-1.1327451249999991
mp-961650,AlVNi,True,1.618192095535381e-16,5.699918,5.699918,5.699918,185.18500757497986,0.0,0.356573097456141
mp-1221616,MnCoSb,True,1.6292857433900842e-16,5.973972,5.973972,5.973972,213.2011525892668,0.0,0.256170344022988
mp-1207173,LiVSb,True,1.6295719618969765e-16,6.410982,6.410982,6.410982,263.49578508749744,0.0,0.042196000833331006
mp-631555,MnVNi,True,1.6367683325450575e-16,5.473603999999999,5.473603999999999,5.473603999999999,163.99104096408217,0.0,0.560809612672417
mp-5866,MnCuSb,True,1.64037759974433e-16,6.08487,6.08487,6.08487,225.29622381575726,0.0,-0.085109634827588
mp-11621,ZnNiSb,True,1.6414162006492507e-16,5.886000116046922,5.886000116046922,5.886000116046922,203.92045851733573,0.0,-0.295538423333332
mp-631482,BiMoRh,True,1.6434861377335556e-16,6.340872,6.340872,6.340872,254.94527015276674,0.0,0.524144535000004
mp-20269,MnGaPt,True,1.646841600484692e-16,5.847282,5.847282,5.847282,199.9227043659669,0.0,-0.181279585143677
mp-1206992,LuBiPt,True,1.6479818518042663e-16,6.61202764,6.61202764,6.61202764,289.07063808482263,0.0,-1.140844233888884
mp-961659,TiSiPd,True,1.6482715161462776e-16,5.882346000000001,5.882346000000001,5.882346000000001,203.54090372566205,0.4087,-0.6683081322222241
mp-631478,IrPbBr,True,1.6501989886606497e-16,6.851192,6.851192,6.851192,321.5869490604489,0.0,0.805114698333333
mp-1100395,BaBrCl,True,1.6544298207767174e-16,7.620074,7.620074,7.620074,442.4636184219817,4.9392,-2.768585671666667
mp-16376,HoSbPt,True,1.65580699211504e-16,6.549680052722652,6.549680052722652,6.549680052722652,280.97019739726505,0.0,-1.380856238333327
mp-631551,MnAlTc,True,1.655901562645214e-16,5.824473999999999,5.824473999999999,5.824473999999999,197.59235293351745,0.0,0.45283255235632003
mp-569685,LiZnP,True,1.6634868970787603e-16,5.654304,5.654304,5.654304,180.77462238858027,0.0,-0.20954038988095203
mp-567418,HoSbPd,True,1.6649045245934873e-16,6.730698,6.730698,6.730698,304.91607016958886,0.391599999999999,-0.8065059968143841
mp-1206717,LaBiPd,True,1.669933787026636e-16,6.92544762,6.92544762,6.92544762,332.1571049782323,0.121699999999999,-1.09791517666667
mp-961684,LiCaAs,True,1.6709993833413618e-16,6.681688,6.681688,6.681688,298.3036569392635,1.876799999999999,-1.147813833888888
mp-1100438,LiScSn,True,1.674595892523492e-16,6.75115,6.75115,6.75115,307.7040924071459,0.36260000000000003,-0.07124034111111001
mp-631255,InSiIr,True,1.678140145741181e-16,6.213739999999999,6.213739999999999,6.213739999999999,239.91601084330148,0.0,0.641077142708335
mp-631319,LiTiRe,True,1.6782258621811963e-16,5.961842,5.961842,5.961842,211.9050890340461,0.0,1.012202545833332
mp-4174,HoNiSb,True,1.6785350507905618e-16,6.290737277949835,6.290737277949835,6.290737277949835,248.94570847333742,0.29199999999999904,-0.962841218333332
mp-1206695,LiVBi,True,1.680917976496871e-16,6.272914,6.272914,6.272914,246.83571611970268,0.0,0.269116571666676
mp-21418,MnSnPt,True,1.6878331689551e-16,6.221618,6.221618,6.221618,240.82969034829767,0.0,-0.333554184310344
mp-1206682,SmNiBi,True,1.689676533733499e-16,6.53478986,6.53478986,6.53478986,279.0582583823599,0.24929999999999902,-0.667981598333331
mp-13305,SmSnAu,True,1.6964209325943218e-16,6.787493415829078,6.787493415829078,6.787493415829078,312.7002755464083,0.0655,-0.855774013333331
mp-631320,TcIrOs,True,1.6983168068965894e-16,5.902476,5.902476,5.902476,205.63767720637452,0.0,0.506931218888884
mp-30460,YNiBi,True,1.7003348267652808e-16,6.453121932263481,6.453121932263481,6.453121932263481,268.72595418542363,0.2016,-0.658193246666665
mp-961646,TiTeOs,True,1.7022200180209914e-16,6.17014,6.17014,6.17014,234.90110230079873,0.43770000000000003,-0.299078620555557
mp-961695,LaCoTe,True,1.7029903719373457e-16,6.583154,6.583154,6.583154,285.30017893608897,0.6309,-0.868410610555555
mp-961727,TaGeRh,True,1.7049823425650977e-16,6.097089999999999,6.097089999999999,6.097089999999999,226.65631164158768,0.0,-0.012095959944441001
mp-542065,CdAgSb,True,1.7106028403167954e-16,6.694678,6.694678,6.694678,300.0468554153097,0.0,-0.031579532777778
mp-961687,ZrSnPd,True,1.7123681181300316e-16,6.362744806733793,6.362744806733793,6.362744806733793,257.5926787720902,0.12510000000000002,-0.8695624016666691
mp-1100433,CaZnSi,True,1.713689207310036e-16,6.352938462303643,6.352938462303643,6.352938462303643,256.4034979524698,0.0,-0.206113539999999
mp-961722,TiBiRh,True,1.7142041799094594e-16,6.349122,6.349122,6.349122,255.9416802196634,0.0,-0.031065807777778003
mp-35555,LaOF,True,1.7181017226203308e-16,5.767317999999999,5.767317999999999,5.767317999999999,191.83228282028432,4.7503,-4.195509371666668
mp-924129,ZrNiSn,True,1.7189451173059661e-16,6.115230209406351,6.115230209406351,6.115230209406351,228.68539666361704,0.49540000000000006,-0.6842003416666651
mp-16343,LiInGe,True,1.7191574317967015e-16,6.3125884113195925,6.3125884113195925,6.3125884113195925,251.548899177767,0.0,-0.22459984833333202
mp-20523,HfNiSn,True,1.7200429976124708e-16,6.30609,6.30609,6.30609,250.77283749095653,0.0,0.17214124166666803
mp-1100431,SrBrCl,True,1.720867025185836e-16,7.24506,7.24506,7.24506,380.29967940774617,2.9008000000000003,-2.250397281666667
mp-10184,MgSbPt,True,1.7228319425525974e-16,6.285689748476124,6.285689748476124,6.285689748476124,248.3469458248966,0.0,-0.700549848333336
mp-5177,LuSnAu,True,1.724185270171857e-16,6.589617550685678,6.589617550685678,6.589617550685678,286.1413547504502,0.0,-0.931271765555555
mp-10685,CdCuSb,True,1.7287558005570375e-16,6.55482,6.55482,6.55482,281.63220177864025,0.0,0.252541321249997
mp-631428,TlCoW,True,1.7340971417066858e-16,6.20428768,6.20428768,6.20428768,238.82279728254153,0.0,1.413196156666671
mp-631471,YScBe,True,1.7352466370553702e-16,6.505874000000001,6.505874000000001,6.505874000000001,275.37020252825795,0.0,0.8983674533333331
mp-961693,ZrInAu,True,1.7398696147151475e-16,6.47134664,6.47134664,6.47134664,271.0091728884267,0.44120000000000004,-0.624336455
mp-13308,HoGeAu,True,1.7411578647716939e-16,6.520702,6.520702,6.520702,277.25734454199215,0.0,-0.741835413333331
mp-631335,MgTaZn,True,1.7414078282729754e-16,6.152304,6.152304,6.152304,232.8699020725058,0.0,0.668751169222222
mp-961677,TaGaPt,True,1.7423786508468435e-16,6.14545,6.14545,6.14545,232.09247974192868,0.0,-0.045416451611110006
mp-961680,NbAlPt,True,1.7423905589501633e-16,6.145366,6.145366,6.145366,232.08296269997788,0.0,-0.159647502833337
mp-636297,HfNiSn,True,1.7431647105264762e-16,6.418436,6.418436,6.418436,264.4159477591832,0.0,0.253445505000001
mp-961672,SrAlGa,True,1.7451895165559317e-16,7.264599999999999,7.264599999999999,7.264599999999999,383.3850018421358,0.0,0.345263411666666
mp-961701,ZrAgB,True,1.7485779291989892e-16,6.101952,6.101952,6.101952,227.19897149600092,0.0,0.843246142222222
mp-631381,TeRuSe,True,1.7487883298080134e-16,6.405508,6.405508,6.405508,262.8214056979309,0.0,0.8489538203124971
mp-1100421,VSnRh,True,1.7538792374308658e-16,6.06512,6.06512,6.06512,223.10956720800974,0.394499999999999,-0.27645372166666704
mp-631294,HfMoSe,True,1.7555704607277678e-16,6.356111999999999,6.356111999999999,6.356111999999999,256.78794023048624,0.0,0.5373683892013711
mp-22792,MnTePd,True,1.7575674887072058e-16,6.341676,6.341676,6.341676,255.04226090823133,0.0,-0.20975325486589902
mp-961683,LiMgP,True,1.7600774335722555e-16,6.022477999999997,6.022477999999997,6.022477999999997,218.43673004595684,1.935,-0.411192047658729
mp-35208,NdOF,True,1.765838123875499e-16,5.654412,5.654412,5.654412,180.78498124024364,5.2617,-4.102901809166666
mp-961698,LiZnP,True,1.770019721002173e-16,5.731697999999999,5.731697999999999,5.731697999999999,188.29981735977233,0.00019999999999900002,-0.523291766547618
mp-31453,NbSbRh,True,1.7725867911409906e-16,6.2346639999999995,6.2346639999999995,6.2346639999999995,242.3478437598817,0.0,-0.40056579666666603
mp-961651,ZrFeSe,True,1.7740563219586422e-16,5.851,5.851,5.851,200.304310051,0.0922,-0.6915341807812501
mp-600124,MnNiSb,True,1.7798495696198252e-16,5.889415241337004,5.889415241337004,5.889415241337004,204.27561552388988,0.0,-0.42720125149425003
mp-31460,NbCoSb,True,1.7876375130919882e-16,5.984858,5.984858,5.984858,214.36878757119177,0.0,-0.264988063333333
mp-961690,VGaNi,True,1.788116630854383e-16,5.68978,5.68978,5.68978,184.19864160017735,0.0,0.274683158300222
mp-10367,HfSbRh,True,1.7926536273995549e-16,6.489059999999999,6.489059999999999,6.489059999999999,273.24068752086134,0.0,-0.278996118838141
mp-631542,BaZrNi,True,1.7969287930826993e-16,6.933592,6.933592,6.933592,333.3303416109722,0.0,0.6748585433333331
mp-31455,VSbRu,True,1.8002366763265253e-16,6.044618,6.044618,6.044618,220.85466661062597,0.21600000000000003,-0.21259356916666103
mp-16313,TbSbPt,True,1.8043019909714696e-16,6.590496828755907,6.590496828755907,6.590496828755907,286.25591286680924,0.09680000000000001,-1.381467409999999
mp-1225491,DySbPd,True,1.8081632620075234e-16,6.562379320000001,6.562379320000001,6.562379320000001,282.6076995406267,0.22989999999999902,-1.120842200555551
mp-10756,VFeSb,True,1.810914317780488e-16,6.076262,6.076262,6.076262,224.3414255991968,0.0,0.16883614666666702
mp-31459,TaCoSb,True,1.8116327292134345e-16,5.968809999999998,5.968809999999998,5.968809999999998,212.64896034766562,0.0,-0.17669200911111102
mp-34976,CeOF,True,1.8142537478509914e-16,5.668167999999999,5.668167999999999,5.668167999999999,182.1076297288215,0.0,-4.0010658
mp-1207056,YSbPd,True,1.8143006299033334e-16,6.576845719999999,6.576845719999999,6.576845719999999,284.48080146562137,0.47440000000000004,-1.239788086666664
mp-9124,LiZnAs,True,1.8214065303176544e-16,5.904923725400157,5.904923725400157,5.904923725400157,205.89361386527577,0.5518000000000001,-0.518190976944444
mp-35612,PuOF,True,1.8223661106860183e-16,5.617815999999998,5.617815999999998,5.617815999999998,177.29746742055457,0.0,-3.498975999583327
mp-1226723,CdSnAu,True,1.8229631743626294e-16,6.736964,6.736964,6.736964,305.76845576494145,0.0,0.009819416666668001
mp-672375,ThNiSn,True,1.8322139111277483e-16,7.016456000000001,7.016456000000001,7.016456000000001,345.42472325493986,0.0,0.320723198333335
mp-1206997,MnGaRu,True,1.8361428272998735e-16,5.810522,5.810522,5.810522,196.1758078021383,0.0,0.145281113409962
mp-961686,HfSiNi,True,1.8374093421820932e-16,5.871592,5.871592,5.871592,202.4266137903459,0.0,-0.32492446833335004
mp-34240,NaZnAs,True,1.8374551510251982e-16,6.354817999999999,6.354817999999999,6.354817999999999,256.6311387368529,0.0,-0.279341486293103
mp-10183,MgSbPd,True,1.8463325264414353e-16,6.293855544336172,6.293855544336172,6.293855544336172,249.31609298906736,0.0,-0.617305951666666
mp-1008858,NdBiPd,True,1.848199374375145e-16,6.82733396,6.82733396,6.82733396,318.2390291191749,0.10510000000000001,-0.9460851791666641
mp-3462,TmSnAu,True,1.8607360059638318e-16,6.622862740461206,6.622862740461206,6.622862740461206,290.4940644309845,0.0,-0.8328357016666691
mp-30560,NbCoSn,True,1.8624093493345842e-16,6.185664,6.185664,6.185664,236.67859222231803,0.0,0.688834795
mp-961696,MnCoSi,True,1.8652060344154132e-16,5.383432,5.383432,5.383432,156.0190736898156,0.0,-0.17797269264367802
mp-22782,TiNiSn,True,1.8670428154796282e-16,6.155,6.155,6.155,233.17617387500002,0.0,0.170788010555555
mp-29733,MgNiBi,True,1.8694641908083568e-16,6.205795094829949,6.205795094829949,6.205795094829949,238.9969151765152,0.0,-0.190246501666669
mp-4846,MnSbRh,True,1.8740960514613041e-16,6.108757999999999,6.108757999999999,6.108757999999999,227.96005986868215,0.0,-0.367694117637933
mp-962067,BaNaSn,True,1.8743439221765198e-16,7.700309999999999,7.700309999999999,7.700309999999999,456.58814191993963,0.0,-0.17681190545976902
mp-631503,ZrAlW,True,1.875533063201304e-16,6.364591999999999,6.364591999999999,6.364591999999999,257.81709211616203,0.0,0.683934473333323
mp-1100391,NaBeSb,True,1.8793887746987869e-16,6.238822,6.238822,6.238822,242.8330444974098,0.9980000000000001,-0.087062465459769
mp-3716,TbNiSb,True,1.8801039546970322e-16,6.333682543697807,6.333682543697807,6.333682543697807,254.07906100128102,0.330999999999999,-0.9653757055555541
mp-631462,BeTcSe,True,1.8808246310192337e-16,5.537726,5.537726,5.537726,169.8221718363241,0.0,0.416852705885416
mp-1206712,ErNiBi,True,1.8808275551379678e-16,6.394735139999999,6.394735139999999,6.394735139999999,261.4975860572803,0.169999999999999,-0.661394963333332