material_id,formula_pretty,is_fit,rms_A,a_A,b_A,c_A,volume_A3,band_gap,formation_energy_per_atom
mp-1100441,CrCuB,True,0.0,5.076452,5.076452,5.076452,130.82202047948962,0.0,0.26635272666666704
mp-1009593,CrCoTe,True,0.0,5.882020000000001,5.882020000000001,5.882020000000001,203.5070648504985,0.0,-0.050198278888888004
mp-604453,CeBiPd,True,0.0,6.86743564,6.86743564,6.86743564,323.87974898585384,0.0,-1.028045071666667
mp-30389,HoPbAu,True,0.0,6.763714436394459,6.763714436394459,6.763714436394459,309.4252783409116,0.0,-0.6630258750000001
mp-961656,VFeTe,True,0.0,5.833012,5.833012,5.833012,198.4625693995239,0.0,-0.21830708888888803
mp-1100425,LiCdSb,True,0.0,6.469752,6.469752,6.469752,270.8088796841773,0.0,-0.27010311111111
mp-2894,ScSnAu,True,0.0,6.471973597179354,6.471973597179354,6.471973597179354,271.0879482737989,0.12249999999999901,-0.8532462150000031
mp-631538,NiBiB,True,0.0,5.819427999999999,5.819427999999999,5.819427999999999,197.07924867404543,0.0,0.8649875759027781
mp-962064,NaYSn,True,0.0,7.28217,7.28217,7.28217,386.1734744365943,0.101799999999999,0.009947487873563001
mp-631299,NbCrCo,True,0.0,5.84066,5.84066,5.84066,199.24424071999948,0.0,0.83372563
mp-30847,TiSnPt,True,0.0,6.192660662974627,6.192660662974627,6.192660662974627,237.4826291640385,0.7908000000000001,-0.938612322222217
mp-568983,MnSbRh,True,0.0,6.029494,6.029494,6.029494,219.20103578536165,0.0,-0.17513378763793702
mp-631383,MnCrRe,True,0.0,5.738507999999999,5.738507999999999,5.738507999999999,188.97178887190066,0.0,0.7117488023563201
mp-1018119,VCoSn,True,0.0,5.938098,5.938098,5.938098,209.3833202372226,0.0,0.46505134166666506
mp-568269,TmNiBi,True,0.0,6.377852038019047,6.377852038019047,6.377852038019047,259.43186578611386,0.149099999999999,-0.650753763333339
mp-10624,USbRh,True,0.0,6.56215361464784,6.56215361464784,6.56215361464784,282.5785406608595,0.0,-0.577150163333327
mp-631458,CaReBi,True,0.0,6.756685999999999,6.756685999999999,6.756685999999999,308.46167315145044,0.0,0.6631916624999881
mp-631495,BaYSc,True,3.411152226078928e-17,8.016902,8.016902,8.016902,515.2520450910189,0.0,0.8405989183333331
mp-30390,HoSnAu,True,3.668737913941729e-17,6.661334240153219,6.661334240153219,6.661334240153219,295.58587463832737,0.022000000000000002,-0.8454543066666661
mp-631526,SiBPb,True,3.842324368831203e-17,6.318597999999999,6.318597999999999,6.318597999999999,252.26800753069594,0.0,1.411171829027774
mp-631568,AlAgB,True,4.236294025200871e-17,5.692443999999999,5.692443999999999,5.692443999999999,184.45749254122978,0.0,0.8454208495333331
mp-1221621,MnAlIr,True,5.188378868883375e-17,5.9139539999999995,5.9139539999999995,5.9139539999999995,206.83966537689392,0.0,-0.20902768931034502
mp-1207094,MgCuPb,True,6.761875505776651e-17,6.401329999999999,6.401329999999999,6.401329999999999,262.3074643652325,0.0,-0.009511431666665
mp-962062,BaSrSn,True,6.845114244909492e-17,7.963562,7.963562,7.963562,505.03572108850875,0.0028000000000000004,-0.198036074999999
mp-961648,KBaP,True,7.020053629187604e-17,7.364686,7.364686,7.364686,399.45025718549766,1.1622,-0.23958089063095103
mp-631550,CaBiB,True,7.350632006080333e-17,6.905886,6.905886,6.905886,329.3504147353376,0.07779999999999901,0.849236478055549
mp-1207190,SmBiPd,True,7.424612730940664e-17,6.768947659999999,6.768947659999999,6.768947659999999,310.14406010856607,0.0,-1.060600278333334
mp-1206989,TbBiPt,True,7.456947298157921e-17,6.71037236,6.71037236,6.71037236,302.16200931274375,0.0,-1.188158791666666
mp-1207177,TbBiPd,True,7.464968394035376e-17,6.6959595400000005,6.6959595400000005,6.6959595400000005,300.2191993247102,0.0,-1.059290718333334
mp-961667,CaNiTe,True,7.467303722022775e-17,6.691772,6.691772,6.691772,299.65629545264295,0.0,-0.5062206288888881
mp-1206744,TmBiPd,True,7.503919517025028e-17,6.62662558,6.62662558,6.62662558,290.98948631575104,0.0,-1.015771948333333
mp-1206719,NdNiBi,True,7.521023469714313e-17,6.59651994,6.59651994,6.59651994,287.0414655112422,0.511899999999999,-0.6555433724999971
mp-961705,TiPtPb,True,7.65294881769468e-17,6.371052,6.371052,6.371052,258.60293484667767,0.0,-0.14813270055556402
mp-30457,LuNiBi,True,7.668111885143238e-17,6.3458804379047065,6.3458804379047065,6.3458804379047065,255.54986509591023,0.012699999999999,-0.71176266055555
mp-30796,NbSnRh,True,7.694478613391217e-17,6.302464,6.302464,6.302464,250.34050324245405,0.0,0.341956508333333
mp-961662,ZrNiGe,True,7.768651650371723e-17,6.18269,6.18269,6.18269,236.33737884475912,0.0,0.042624608333332
mp-961665,MgScGa,True,7.784063824732443e-17,6.47801,6.47801,6.47801,271.84718628846343,0.055400000000000005,-0.279399509166667
mp-631427,CuIrBr,True,7.876596362747842e-17,6.01439,6.01439,6.01439,217.5578502775675,0.0,1.000008725
mp-1100397,BaAuCl,True,7.937845584093486e-17,7.402416,7.402416,7.402416,405.62103007674546,1.9625999999999992,-1.427983426666666
mp-1100404,VAsRu,True,8.041164207966481e-17,5.770732,5.770732,5.770732,192.17315348390562,0.0,-0.167685217032522
mp-38194,YOF,True,8.281520991804021e-17,5.440621999999998,5.440621999999998,5.440621999999998,161.04441197178733,5.6328,-4.158211506666666
mp-12718,LiPrSn,True,8.292388375486461e-17,6.782964,6.782964,6.782964,312.0746817317602,0.0,-0.49752711333333305
mp-10623,ThSbRh,True,8.339088861086192e-17,6.707204948115119,6.707204948115119,6.707204948115119,301.7343341533557,0.7438,-1.1780022699999981
mp-631506,SrZrCo,True,8.426466744391073e-17,6.568825999999999,6.568825999999999,6.568825999999999,283.4413933864017,0.0,1.048716999444444
mp-568800,CdCuSb,True,8.430644068312986e-17,6.562318,6.562318,6.562318,282.59977740993526,0.0,0.14757317791666402
mp-961715,HfPtPb,True,8.44628767770282e-17,6.538032,6.538032,6.538032,279.4738164547088,0.0,0.08038587666666701
mp-961658,VFeSe,True,8.472587072368173e-17,5.574054,5.574054,5.574054,173.18629252787352,0.0,-0.313655224114583
mp-631423,TaPbBr,True,8.472587805683756e-17,6.787437999999999,6.787437999999999,6.787437999999999,312.6926165760856,0.0,1.162116339222223
mp-631405,ZrTcCl,True,8.472587805683756e-17,5.989231999999998,5.989231999999998,5.989231999999998,214.83914184828404,0.0,0.474628285416663
mp-1008680,TiGePt,True,8.472588050401738e-17,5.94834406,5.94834406,5.94834406,210.4690506950597,0.8822000000000001,-0.9806829755555521
mp-962068,CaMgSn,True,8.47258805040174e-17,7.019982,7.019982,7.019982,345.9457468652234,0.0,-0.286866849999999
mp-1100427,KNaSb,True,8.47258805040174e-17,7.653617366757472,7.653617366757472,7.653617366757472,448.3325173941318,0.0,-0.280357260000002
mp-571363,YbSbPd,True,8.477732449478018e-17,6.489621495441665,6.489621495441665,6.489621495441665,273.3116238397864,0.0,-1.226686474999998
mp-631356,NbOsPb,True,8.52912647498086e-17,6.411648,6.411648,6.411648,263.5779127977097,0.0,0.7682431844444391
mp-1100442,TiAuBr,True,8.532635190961846e-17,6.406375999999999,6.406375999999999,6.406375999999999,262.928263684025,0.0,0.253401070555555
mp-31456,HfSbRu,True,8.59178958484898e-17,6.318464,6.318464,6.318464,252.25195814942825,0.0,-0.5357222264035121
mp-510613,MnNiAs,True,8.622241076150629e-17,10.03826,10.03826,10.03826,1011.5219708340437,0.0,3.540748798189655
mp-1216641,TiSnRh,True,8.708904826107228e-17,6.149668299999999,6.149668299999999,6.149668299999999,232.57073986017264,0.0,-0.551326402777775
mp-961691,HfNiGe,True,8.72945520074567e-17,6.120748,6.120748,6.120748,229.30498594651192,0.0,0.023201186666663
mp-7575,LiZnN,True,8.757943511252217e-17,4.864794373012698,4.864794373012698,4.864794373012698,115.13131476469916,0.5187,-0.42346953347222105
mp-8003,SiCN,True,8.852935494067124e-17,4.760956,4.760956,4.760956,107.91517104867981,0.0,1.401718794480261
mp-631354,ReOsRu,True,8.875436733490929e-17,5.921057999999999,5.921057999999999,5.921057999999999,207.58594515468877,0.0,0.687556893444442
mp-1100422,VTeRu,True,8.887066647620529e-17,6.07678,6.07678,6.07678,224.39880566222976,0.0,-0.11468908555555501
mp-631394,CaZrPd,True,9.406345941590731e-17,6.6128,6.6128,6.6128,289.171950129152,0.0,0.768503563124999
mp-4262,BeAlB,True,9.709679327506893e-17,4.947308655166513,4.947308655166513,4.947308655166513,121.08964851371275,0.0,-0.052399171388889006
mp-1206955,ErBiPd,True,9.756108012760113e-17,6.860466,6.860466,6.860466,322.89464978997165,0.24699999999999903,-0.57748750277778
mp-961718,TiAsRh,True,9.889515157996688e-17,5.96127,5.96127,5.96127,211.84410213670037,0.0,-0.42897138694444403
mp-962075,SrMgSn,True,9.90125867658632e-17,7.612336,7.612336,7.612336,441.11705359048295,0.0,0.154483226666667
mp-631353,MnRePt,True,9.976030707964765e-17,5.8583219999999985,5.8583219999999985,5.8583219999999985,201.05723994859986,0.0,0.5821484698563211
mp-631296,KHfNi,True,1.0028728874874146e-16,6.492546,6.492546,6.492546,273.681288547102,0.0,1.9877720223333362
mp-631463,CuTcBi,True,1.0224506049983061e-16,6.246289999999999,6.246289999999999,6.246289999999999,243.70611740081011,0.0,0.6814291816666671
mp-631509,ZrBeCd,True,1.0256539757224702e-16,6.429024000000001,6.429024000000001,6.429024000000001,265.72666750706145,0.0,0.7948190983333341
mp-570014,YbSbPt,True,1.0259344604359048e-16,6.5009155321903505,6.5009155321903505,6.5009155321903505,274.7410600507786,0.0,-1.378672905000002
mp-11520,YNiSb,True,1.0333643799275347e-16,6.332121532709895,6.332121532709895,6.332121532709895,253.89124492765808,0.29450000000000004,-0.9493987499999981
mp-961702,LaSbPt,True,1.0366463943641303e-16,6.944444,6.944444,6.944444,334.8979123799767,0.0,-0.655499741666666
mp-568398,CaBiAu,True,1.0386941433070381e-16,6.917089536964146,6.917089536964146,6.917089536964146,330.9559490376916,0.0,-0.8070770083333371
mp-20185,LuNiSb,True,1.038782305056681e-16,6.213739174122376,6.213739174122376,6.213739174122376,239.91591518050984,0.214599999999999,-0.9881912088888831
mp-631337,NaTaNi,True,1.0401808812635918e-16,6.03516408,6.03516408,6.03516408,219.8200213462257,0.0,1.466883314222222
mp-1206720,PrBiPd,True,1.0426786275448423e-16,6.86432472,6.86432472,6.86432472,323.4397997727414,0.0,-0.935451583888889
mp-631365,TeRuPb,True,1.0428012857228791e-16,6.86271,6.86271,6.86271,323.21160170948053,0.0,1.096769016666665
mp-631338,LiZrSc,True,1.0469651079951506e-16,6.808232,6.808232,6.808232,315.57532602065794,0.0,1.131952621777777
mp-30413,TbPbAu,True,1.0477356172647983e-16,6.798222075959187,6.798222075959187,6.798222075959187,314.1854308561219,0.0,-0.685950168888892
mp-568926,GdSbPt,True,1.051657984962515e-16,6.747606,6.747606,6.747606,307.2197611688084,0.0,-0.6652870499999981
mp-1076916,GdBiPd,True,1.0525960981280679e-16,6.73558392,6.73558392,6.73558392,305.58058249209375,0.0,-1.004648475
mp-11390,LiGaSi,True,1.0532183455102189e-16,5.886674,5.886674,5.886674,203.9905066598238,0.1885,-0.135539720277778
mp-631421,CrGaTe,True,1.0541111505385904e-16,6.716235999999999,6.716235999999999,6.716235999999999,302.95480491462405,0.0,0.356367661944444
mp-30453,DyBiPt,True,1.0560586848370909e-16,6.691487301279861,6.691487301279861,6.691487301279861,299.61805081387126,0.0,-1.183137906666663
mp-961673,TiFeTe,True,1.0567122922987033e-16,5.8478520277748975,5.8478520277748975,5.8478520277748975,199.98117902359013,0.9852000000000001,-0.650884536666657
mp-961671,TiGePt,True,1.0593866687168182e-16,6.02612,6.02612,6.02612,218.8332583996849,0.0,-0.5181297755555551
mp-1206953,ErBiPd,True,1.0599855843834764e-16,6.641999600000001,6.641999600000001,6.641999600000001,293.01950834860656,0.0,-1.024012719444447
mp-1206667,PrNiBi,True,1.0603682576970033e-16,6.63720644,6.63720644,6.63720644,292.3855986045024,0.33379999999999904,-0.637748460555554
mp-631539,BiBCl,True,1.0611089224024679e-16,6.627944,6.627944,6.627944,291.16320490984407,0.0,1.5898406582407412
mp-22786,ThNiSn,True,1.0665054904374023e-16,6.5610382844953,6.5610382844953,6.5610382844953,282.4344805758129,0.2675,-0.6893862349999951
mp-567422,GdNiBi,True,1.0719391551611274e-16,6.494690999999999,6.494690999999999,6.494690999999999,273.95263371724263,0.0,-0.6714214433333361
mp-12603,ScSnPt,True,1.0719945332315869e-16,6.49402,6.49402,6.49402,273.8677321139528,0.0,-0.414755379999999
mp-631317,NaIrPb,True,1.0722215822379491e-16,6.49127,6.49127,6.49127,273.5199579862114,0.0,0.8110907806249941
mp-631395,CaTaTc,True,1.0780664829107252e-16,6.421074,6.421074,6.421074,264.7421094579866,0.0,0.9948349675555471
mp-962069,LiAgTe,True,1.0800276306805965e-16,6.397776,6.397776,6.397776,261.87080983557894,0.0,-0.560684517222221
mp-16327,DySbPt,True,1.0806540345919158e-16,6.570633270866492,6.570633270866492,6.570633270866492,283.6754061254696,0.049299999999999004,-1.214195870555552
mp-961708,NbInPt,True,1.0820268493768721e-16,6.374156,6.374156,6.374156,258.9810959353248,0.0,0.051087372583339
mp-30806,ZrNiSn,True,1.0830306310407813e-16,6.362346,6.362346,6.362346,257.5442453086129,0.0,0.074641914999999
mp-4510,DyNiSb,True,1.087407793894573e-16,6.311228150502397,6.311228150502397,6.311228150502397,251.38632004464267,0.3123,-0.964084313888886
mp-571185,HfCoSb,True,1.0884466960630541e-16,6.299186,6.299186,6.299186,249.950089542525,0.0,0.23018884067619103
mp-31452,ZrNiBi,True,1.0890775880738196e-16,6.2918899999999995,6.2918899999999995,6.2918899999999995,249.08258485927823,0.0,-0.307924750000001
mp-631387,SnRuW,True,1.0965185815191647e-16,6.206786,6.206786,6.206786,239.11141835869955,0.0,0.6243340659523731
mp-31451,ZrCoBi,True,1.098174117166377e-16,6.188086214713498,6.188086214713498,6.188086214713498,236.95674064174366,0.9771999999999991,-0.41261500666666906
mp-1100412,TiTeRu,True,1.1025573824690584e-16,6.138982000000001,6.138982000000001,6.138982000000001,231.36042850963324,0.786099999999999,-0.533593638055554
mp-1093990,ZrAsIr,True,1.1041731911821464e-16,6.121028,6.121028,6.121028,229.3364567732406,0.0,-0.397833649166667
mp-1008807,RbCuO,True,1.1043825032644139e-16,6.118708000000001,6.118708000000001,6.118708000000001,229.07578539113044,0.0,-0.190537467499999
mp-10154,MnSbIr,True,1.1046267910008372e-16,6.116001999999999,6.116001999999999,6.116001999999999,228.77199332880926,0.0,-0.204147135977011
mp-631575,TiCrAg,True,1.1054241549233829e-16,6.107181999999999,6.107181999999999,6.107181999999999,227.78367096502473,0.0,0.8785086724999991
mp-631508,LaReB,True,1.1064413514684581e-16,6.095958,6.095958,6.095958,226.53009045504402,0.0,1.127003035039687
mp-631435,ReRuBr,True,1.107110619315393e-16,6.08859,6.08859,6.08859,225.70968265678377,0.0,1.155546917499999
mp-631452,NbCrW,True,1.107466093423602e-16,6.084682,6.084682,6.084682,225.27534199833644,0.0,1.030356558333338
mp-924128,HfNiSn,True,1.1089370955095279e-16,6.068550077837279,6.068550077837279,6.068550077837279,223.48831456808674,0.386899999999999,-0.630728398333329
mp-631373,TiVW,True,1.1139632077346985e-16,6.013912,6.013912,6.013912,217.5059824799726,0.0,1.122897118888886
mp-631288,LaGeOs,True,1.1156519841986714e-16,6.745183999999999,6.745183999999999,6.745183999999999,306.88905756388226,0.0,0.9255226500000001
mp-1207929,TmBiRh,True,1.1176475814406225e-16,6.721118,6.721118,6.721118,303.61593447346524,0.0,-0.19311227666666902
mp-961674,VGePt,True,1.1250767118375462e-16,5.895688,5.895688,5.895688,204.9290268620143,0.0,-0.12919433166666602
mp-961668,AlVPt,True,1.1279153350191057e-16,5.866049999999998,5.866049999999998,5.866049999999998,201.85396343339488,0.0,-0.13764821000000002
mp-631436,VOsCl,True,1.129525262284288e-16,5.849340000000001,5.849340000000001,5.849340000000001,200.13387209449257,0.0,0.579969546944454
mp-631479,CaHfBe,True,1.132988443004346e-16,6.5403400000000005,6.5403400000000005,6.5403400000000005,279.76989330011133,0.0,0.723478678333334
mp-631540,NiBTe,True,1.1429751997073544e-16,5.712486000000001,5.712486000000001,5.712486000000001,186.41267825992153,0.0,0.7392054047569441
mp-961675,ScNiP,True,1.1468376980556086e-16,5.674072,5.674072,5.674072,182.6772760758584,0.5921000000000001,-1.033952266547617
mp-622980,MnTePd,True,1.1490813178671924e-16,6.358428,6.358428,6.358428,257.06874283270605,0.0,-0.0034567115325660003
mp-961652,ZrFeSb,True,1.1655294554530378e-16,6.180232,6.180232,6.180232,236.05561490830948,0.0,-0.5048053033333331
mp-1100434,BaSrSi,True,1.177740548439957e-16,7.565925197929595,7.565925197929595,7.565925197929595,433.09795163395944,0.49140000000000006,0.163959766666666
mp-962074,YTlCd,True,1.1935729487620694e-16,7.2028360000000005,7.2028360000000005,7.2028360000000005,373.68922846936334,0.0,0.09217689222222
mp-20889,HfSnPt,True,1.1973021726946429e-16,6.517136,6.517136,6.517136,276.8027190605298,0.0,-0.34612553166666205
mp-631302,ScVFe,True,1.2219833558338177e-16,5.7785639999999985,5.7785639999999985,5.7785639999999985,192.95666436658334,0.0,0.678175858333332
mp-1100405,ScTeRh,True,1.2401444894003315e-16,6.283712957395951,6.283712957395951,6.283712957395951,248.11271107731193,0.38460000000000005,-1.21827575388889
mp-961692,TaInNi,True,1.2420221008473705e-16,6.19832,6.19832,6.19832,238.13431489189836,0.0,0.7493166550555561
mp-962078,CaCdSi,True,1.2474714844555785e-16,6.6845159999999995,6.6845159999999995,6.6845159999999995,298.68258506819063,0.0,-0.084177969999998
mp-1100418,ScTlCd,True,1.250341156911906e-16,6.879452,6.879452,6.879452,325.58286044450995,0.0,0.07541821566666801
mp-21425,UNiSn,True,1.266290946502894e-16,6.39932928,6.39932928,6.39932928,262.06159056351237,0.012899999999998002,-0.097125218333327
mp-1221963,MgBeB,True,1.266976047177512e-16,5.230154,5.230154,5.230154,143.06830441190766,0.0,0.42781591361111104
mp-962070,LiScSi,True,1.2742955347136327e-16,6.319185999999999,6.319185999999999,6.319185999999999,252.3384412214807,0.444999999999999,0.058109410555555005
mp-31458,TiSbRu,True,1.2907362867248912e-16,6.15923,6.15923,6.15923,233.65725262033547,0.0,-0.44228286472222006
mp-1206679,YBiPt,True,1.2918761379855609e-16,6.7073083,6.7073083,6.7073083,301.74828271744815,0.0,-1.1693975149999951
mp-30455,HoBiPt,True,1.2950880199108005e-16,6.674080645950757,6.674080645950757,6.674080645950757,297.2859266168097,0.0,-1.175998753333327
mp-961721,HfBiRh,True,1.3018946067568547e-16,6.604476000000001,6.604476000000001,6.604476000000001,288.08132045427965,0.0,-0.009774945151524
mp-1009547,CsRbAs,True,1.3247302355056806e-16,8.54736,8.54736,8.54736,624.4475819518401,0.0,-0.140662314885058
mp-961703,NaLiPt,True,1.326184436072258e-16,6.364762,6.364762,6.364762,257.83775176395363,0.5526,0.19207614559387
mp-962060,NaYSi,True,1.328586179986457e-16,6.870252,6.870252,6.870252,324.27838516523343,0.20869999999999903,0.155427322816092
mp-1018162,CeBiPt,True,1.3287787069851113e-16,6.868261280000001,6.868261280000001,6.868261280000001,323.99657871990433,0.0,-0.9325651566666631
mp-10178,LiMgP,True,1.3330895752014475e-16,5.7740800000000005,5.7740800000000005,5.7740800000000005,192.50782631310136,0.0,-0.400808674325396
mp-1218968,SmSbPt,True,1.3332674628087696e-16,6.953286000000001,6.953286000000001,6.953286000000001,336.17876621452837,0.0,-0.388480001666666
mp-961655,YCdGa,True,1.3344603822163652e-16,6.94086,6.94086,6.94086,334.379661487108,0.0,0.06630533416666701
mp-961688,VGaPt,True,1.3347592741167272e-16,5.890544000000001,5.890544000000001,5.890544000000001,204.39309173655022,0.0,-0.12463609916666601
mp-961732,HfNiPb,True,1.3368070293358813e-16,6.264012,6.264012,6.264012,245.78634030376207,0.0,0.489870420000002
mp-1008874,MnCoTe,True,1.3386071886910164e-16,5.864,5.864,5.864,201.642412544,0.0,-0.2192231248659
mp-1009544,CsRbP,True,1.361995188694838e-16,8.328918,8.328918,8.328918,577.784329885726,0.0,-0.003294933932676
mp-631371,TlCuIr,True,1.3643894036092824e-16,6.193918,6.193918,6.193918,237.6273115624888,0.0,0.526797712222228
mp-22689,ZrSnPd,True,1.3646669421685435e-16,6.511765999999999,6.511765999999999,6.511765999999999,276.1190416846123,0.149099999999999,-0.337737558333339
mp-1100403,KBaSb,True,1.3715848220123227e-16,7.933839629252302,7.933839629252302,7.933839629252302,499.4019718913999,0.9849999999999991,-0.49571660574999904
mp-631484,TaTiAl,True,1.3821908205162494e-16,6.347696,6.347696,6.347696,255.76926699309422,0.0,0.7705011500000011
mp-961710,VSiPt,True,1.3865731894454435e-16,5.822432,5.822432,5.822432,197.38460431411943,0.0,-0.43040730333333305