material_id,formula_pretty,is_fit,rms_A,a_A,b_A,c_A,volume_A3,band_gap,formation_energy_per_atom
mp-11107,Ac2O3,True,8.025188417993545e-07,4.095488002164615,4.095488002164615,6.29988201,91.51122380826276,3.522599999999999,-3.737668289999997
mp-1968,La2O3,True,0.0023975448597795,3.930777877969835,3.930777877969835,6.11195352,81.7838744358029,3.824799999999999,-3.8759289195
mp-2063,Pr2O3,True,0.0033592581233865,3.8893572565517,3.8893572565517,6.05917112,79.37788509634348,3.745199999999999,-3.728230869166667
mp-2763,Nd2O3,True,0.0041159803767042,3.847162325908735,3.847162325908735,6.02041543,77.1681545182218,3.8089,-3.775887380999997
mp-20470,Gd2O3,True,0.0043627643616894,3.7285259174390344,3.7285259174390344,5.89412876,70.96179347214091,2.969999999999999,-3.864237869500002
mp-547622,Pm2O3,True,0.0046150385054236,3.8050592281473303,3.8050592281473303,5.97084222,74.86676527364655,3.8673,-3.8237697285
mp-10733,Sm2O3,True,0.0050113908769833,3.77872253564146,3.77872253564146,5.94231147,73.48116800534032,3.9371,-3.844915249500001
mp-21423,Pu2O3,True,0.0054401500627664,3.7612674470934664,3.7612674470934664,5.972689,73.1760501522371,0.0,-3.214050472499994
mp-13063,Tb2O3,True,0.0063158266564145,3.6818531587176575,3.6818531587176575,5.83317276,68.48073269206665,4.1338,-3.942971762416667
mp-13061,Y2O3,True,0.0067067026938318,3.655693890356825,3.655693890356825,5.84110698,67.60291734801356,4.083600000000001,-3.896637876499996
mp-13064,Dy2O3,True,0.0067919178733006,3.65565502127432,3.65565502127432,5.81077127,67.2503924128925,4.1997,-3.9594392734166672
mp-1940,Th2N3,True,0.0070215508636544,3.913462212719634,3.913462212719634,6.15322,81.61225242748769,0.0,-1.639255768333328
mp-13065,Ho2O3,True,0.0073281476997017,3.628674352510765,3.628674352510765,5.79562279,66.08862761614566,4.2423,-3.973794766499998
mp-973,U2N3,True,0.0073526530115161,3.709980152829445,3.709980152829445,5.74102568,68.43263987504677,0.0,-1.719843521249998
mp-13066,Er2O3,True,0.0074665724292341,3.605293517435009,3.605293517435009,5.75945262,64.83254900043096,4.196899999999999,-3.997353955499998
mp-13067,Tm2O3,True,0.0075634095590483,3.5808645106304766,3.5808645106304766,5.72990175,63.62877830715269,4.1535,-4.021751758250004
mp-13060,Sc2O3,True,0.0075944564110107,3.389680008054005,3.389680008054005,5.666015,56.38008879454057,3.3909,-3.836842867
mp-13068,Lu2O3,True,0.0079616895756257,3.5316134950232785,3.5316134950232785,5.69896531,61.55636702822411,4.0883,-4.039624749416665
mp-1017564,Eu2O3,True,0.0105263287882404,3.7882997898812265,3.7882997898812265,5.820837110017761,72.34437311147995,0.0,-3.445172557
mp-2721,Ce2O3,True,0.0116494459099298,3.8709839493718223,3.8709839493718223,5.89577273,76.50927856158677,0.0,-3.688947110999999
mp-1017550,Be3N2,True,0.0142344830793005,2.8177777140168456,2.8177777140168456,4.667022,32.091050925152246,4.27,-1.009266585000001
mp-7891,Mg3As2,True,0.0189031847505279,4.260979218724971,4.260979218724971,6.73838534,105.95106017492245,0.0,-0.7560376660000001
mp-1017552,Bi2O3,True,0.020094628928507,3.8535231672483183,3.8535231672483183,5.92725986220509,76.22554676264791,1.1218,-1.556733108500004
mp-1216564,Tl2O3,True,0.0243853583780803,3.592857638469969,3.592857638469969,6.51278816458819,72.80774876840216,0.0,-0.984304526333336
mp-2646,Mg3Sb2,True,0.0312700771883714,4.572516929762709,4.572516929762709,7.24475274,131.17915944350338,0.2172,-0.421186031
mp-1014454,Cr3N2,True,0.0319694785627362,3.1436457432188507,3.1436457432188507,5.752724,49.23470828769587,0.0,-0.283983616166662
mp-1001117,Mn3N2,True,0.0346297295324409,5.27261535511097,3.059512766273741,5.881946246852823,94.88408508511864,0.0,-0.196312870814654
mp-569018,Mg3Bi2,True,0.0405659507622361,4.675970793054991,4.675970793054991,7.40701023,140.2546135197571,0.0,-0.178665938999998
mp-13146,Ca3N2,True,0.0428479769049724,3.854377771553016,3.854377771553016,6.932804,89.19656094417223,1.4173,-0.8667898127499991
mp-1245668,Cu2As3,True,0.0428920254222572,4.057332930311918,4.057332930311918,6.090212,86.82490844271649,0.0,0.174705179
mp-1207013,Si2Rh3,True,0.0773604142756867,3.969475933481404,3.969475933481404,5.06209372,69.07599661774988,0.0,-0.854004504000002
mp-1206431,In2Au3,True,0.0937540630666351,4.63618612759173,4.63618612759173,5.989056,111.4835351815508,0.0,-0.135882024
mp-1207227,Mg2Bi3,True,0.1008562924547833,5.198190175933829,5.198190175933829,6.5398,153.03805126795856,0.0,-0.033448190000001
mp-21400,Ga3Pt2,True,0.1108839222111584,4.243884331343218,4.243884331343218,5.24719751,81.8436747055783,0.0,-0.5968488764999991
mp-10905,Al3Pt2,True,0.1112473878951254,4.207140033941686,4.207140033941686,5.18896172,79.53989876108183,0.0,-1.102624861999999
mp-1069815,In3Pt2,True,0.1156952414797512,4.5722574067776245,4.5722574067776245,5.57637613,100.95876641918872,0.0,-0.5989599319999961
mp-10886,Al3Cu2,True,0.1189636106668951,4.091951636806818,4.091951636806818,4.9927787,72.39922756725561,0.0,-0.195314849999999
mp-10901,Al3Pd2,True,0.1240469304256011,4.212153536827607,4.212153536827607,5.172384450000197,79.47486805271377,0.0,-0.812340915999999
mp-1069983,Al3Ru2,True,0.1288078972172002,4.2125857871194095,4.2125857871194095,5.110231,78.53598231283756,0.0,-0.5328650539999981
mp-510437,In3Pd2,True,0.1333859864636622,4.561220418654145,4.561220418654145,5.56368455,100.24327565538871,0.0,-0.544883318
mp-11397,Ga3Ni2,True,0.1439014620283026,4.010897869934696,4.010897869934696,4.86488096,67.77757976979501,0.0,-0.423785574
mp-21385,In3Ni2,True,0.1456876695058317,4.385071455897039,4.385071455897039,5.29923176,88.2463791336128,0.0,-0.210675882000001
mp-1206370,Mg2Sb3,True,0.1576316803462549,4.695362197484875,4.695362197484875,7.490325,143.011015912756,0.0,-0.209429909999999
mp-27971,AcCl3,True,2.2789607510805267e-06,7.695635518178531,7.695635518178531,4.5690029800000005,234.3371014693296,5.0865,-2.788094297499999
mp-22896,LaCl3,True,0.0005270857079974,7.54401242095835,7.54401242095835,4.37168074,215.46853535083147,3.6454,-2.703267628124999
mp-23278,NpCl3,True,0.0006836410439887,7.421231158358292,7.421231158358292,4.31220639,205.67527616522997,0.047299999999999,-2.3544468428125
mp-23211,PrCl3,True,0.0008459170989922,7.499680351730479,7.499680351730479,4.30124389,209.51262940784073,4.3454000000000015,-2.592783406041665
mp-23183,NdCl3,True,0.0008874578802475,7.474769861164252,7.474769861164252,4.24927627,205.60858834099812,4.299799999999999,-2.585905556250001
mp-582011,CeCl3,True,0.0016586754435375,7.504530635848222,7.504530635848222,4.29801741,209.6263496616267,0.011099999999999,-2.567102358125
mp-22918,PuCl3,True,0.0021480120764001,7.391154003061179,7.391154003061179,4.25312202,201.21621577358968,0.0,-2.3443700303125
mp-23166,NpBr3,True,0.0050582178314207,8.005590272283271,8.005590272283271,4.41260259000525,244.91318455212155,0.0,-1.8072203021875
mp-23208,UCl3,True,0.0064339219266009,7.503980594290824,4.28613031,7.520283100887413,209.760366052495,0.0,-2.210535621874999
mp-569850,CeBr3,True,0.0065629583691224,8.086764346897269,8.086764346897269,4.39952406,249.1643499160867,0.0,-2.261770134999998
mp-23265,GdCl3,True,0.0071799344577473,7.458317403678345,7.458317403678345,4.07490477,196.30430273272785,2.0054,-2.506313930624998
mp-23255,UBr3,True,0.0072388868535247,8.016692797401575,4.4252762,8.019542978473257,248.12502853657753,0.0,-1.6926844325
mp-23221,PrBr3,True,0.0072775818073881,8.029468645519184,8.029468645519184,4.43424121,247.5845606332728,3.429599999999999,-2.306216135416666
mp-23263,LaBr3,True,0.0078763903025549,8.05395551657293,8.05395551657293,4.51034726,253.37225998432237,2.9266,-2.423042803749999
mp-27972,AcBr3,True,0.0083085179428897,8.168264033291733,8.168264033291733,4.72345121,272.9289475926483,4.103299999999999,-2.494519163125
mp-569895,EuCl3,True,0.0084277715606056,7.435378276232042,4.223114890000122,7.485639604170291,204.5083633107856,0.0,-2.125660104375001
mp-568170,TbCl3,True,0.0093656200387172,7.43151403067669,7.43151403067669,4.01996813,192.2683706224788,4.1024,-2.532088784374998
mp-642855,Mg3Ge,True,0.03598575872173,6.952656121341288,6.952656121341288,4.252652,178.0295017452964,0.0,-0.116053993750001
mp-1206505,GdO3,True,0.0424134435191933,6.084385635216949,6.084385635216949,3.610265,115.7452500329357,0.0,-1.766396052499999
mp-1205900,CeO3,True,0.0439436394670432,6.0648841667073885,6.0648841667073885,3.64122,115.99054060080472,0.0,-2.434195327499999
mp-720472,PrO3,True,0.1046419290497973,5.6299501203618565,5.6299501203618565,4.41088,121.07792478535104,0.6315000000000001,-1.938387684166666
mp-1178953,TmO3,True,0.1159581174207166,6.393507849615106,6.393507849615106,3.360292,118.95591862598928,0.2035,-2.094708850000001
mp-1206099,YO3,True,0.1163996601504484,6.4975282988650696,6.4975282988650696,3.423774,125.1791737455225,0.194799999999999,-2.0104380375
mp-1025483,ErO3,True,0.1167832990952986,6.442921512167191,6.442921512167191,3.372533,121.2418406885253,0.2098,-2.077117393749999
mp-1025565,HoO3,True,0.1202312920327452,6.487932030299639,6.487932030299639,3.40243,124.03161925345216,0.1889,-2.062738198749999
mp-1025387,TbO3,True,0.1231716173099409,6.553241978718663,6.553241978718663,3.447799,128.22862349666522,0.156399999999999,-2.045014071666666
mp-1025421,SmO3,True,0.1306855109493941,6.717208532387373,6.717208532387373,3.51995,137.5449938078976,0.1538,-1.98604947
mp-1180065,NdO3,True,0.1346016754388974,6.834324345676781,6.834324345676781,3.580795,144.84425082529057,0.1407,-1.945172913125
mp-1225558,ErCo3Ni2,True,6.845502639605276e-07,4.8128878815410285,4.8128878815410285,4.02729,80.78951943993688,0.0,-0.192527278333332
mp-1018723,HoCo3Cu2,True,6.850318827223812e-07,4.881652153964114,4.881652153964114,4.067879,83.95224578190108,0.0,-0.098162197499998
mp-1219079,SmCo2Cu3,True,6.851558967363733e-07,4.946805712655685,4.946805712655685,4.11776,87.26525649775711,0.0,-0.023745774166667
mp-1223880,HoCo3Ni2,True,6.852540301282851e-07,4.831456158800157,4.831456158800157,4.018336,81.2330885909208,0.0,-0.185079927499998
mp-1018743,LaNi3Rh2,True,6.85756332143042e-07,5.077330102452172,5.077330102452172,4.204556,93.86886631849602,0.0,-0.279175180833332
mp-1225157,EuCu3Pd2,True,6.860177561734174e-07,5.208147714238367,5.208147714238367,4.303163,101.08460428346376,0.0,-0.3569039225
mp-1217318,ThMn3Ni2,True,6.862340267362296e-07,5.01671030162824,5.01671030162824,4.137258,90.17398892091542,0.0,-0.060195355632182
mp-1215948,YCo3Ni2,True,6.863332787517524e-07,4.863590219281118,4.863590219281118,4.007545,82.09618806795153,0.0,-0.165314466666667
mp-1217368,ThFe3Co2,True,6.866885069849415e-07,4.899379764963565,4.899379764963565,4.024673,83.66492773134958,0.0,-0.058897379999998
mp-1211224,LaCo3Ni2,True,6.867123026881695e-07,4.960751890069135,4.960751890069135,4.074251,86.83072466841817,0.0,-0.099270500833333
mp-1218349,SrAg3Pd2,True,6.867344835246269e-07,5.548575314102725,5.548575314102725,4.55615608,121.47647907506408,0.0,-0.322186554166666
mp-1219088,SmCo3Ni2,True,6.867994223123214e-07,4.923375893794716,4.923375893794716,4.040514,84.81901747568975,0.0,-0.139975905833334
mp-13118,CeZn3Pd2,True,6.878127687833696e-07,5.308993192525559,5.308993192525559,4.3190311,105.42443930210752,0.0,-0.571899726666664
mp-1226659,CeCo3Cu2,True,6.878783987248617e-07,4.944998047777218,4.944998047777218,4.020631,85.14459763613029,0.0,-0.072354619999999
mp-7247,CeZn3Cu2,True,6.882080845357461e-07,5.173810953211775,5.173810953211775,4.19471586,97.24209160111444,0.0,-0.259160623333333
mp-1215563,YbCu2Ni3,True,6.8823394307995e-07,4.843572154477839,4.843572154477839,3.926095085974709,79.76695115861496,0.0,-0.275421745833334
mp-1222937,LaCo2Ni3,True,6.883660873429922e-07,4.95006983956393,4.95006983956393,4.007845,85.0480188921937,0.0,-0.122614504166667
mp-1219076,SmCo2Ni3,True,6.885826028927043e-07,4.907883470500316,4.907883470500316,3.966268,82.73726735288417,0.0,-0.144411265833332
mp-1222942,LaCu3Ni2,True,6.886240876180618e-07,5.010197653124228,5.010197653124228,4.04750259,87.98881836094277,0.0,-0.233867999166671
mp-20899,UGa3Pd2,True,6.886938290653649e-07,5.335527657658789,5.335527657658789,4.307727,106.20221018425435,0.0,-0.533159251533258
mp-1219681,PrCo3Ni2,True,6.887879721778794e-07,4.975994340746821,4.975994340746821,4.014188,86.07719288785881,0.0,-0.088344158611111
mp-1217336,ThFe2Ni3,True,6.89457838670751e-07,4.98560412245196,4.98560412245196,3.998749,86.07764125226738,0.0,-0.207733884999998
mp-1217570,TbCu2Ni3,True,6.895629492416509e-07,4.9008362663625755,4.9008362663625755,3.92719502,81.68710156121564,0.0,-0.286165471111111
mp-3494,CeGa3Pd2,True,6.906455229061028e-07,5.379950081226708,5.379950081226708,4.27102198,107.0579517570107,0.0,-0.726272432083333
mp-1219013,SmMn2Ni3,True,6.91102108754692e-07,5.053933899086433,5.053933899086433,3.996422,88.40179585071215,0.0,-0.169357973477011
mp-1225214,EuAl3Ag2,True,6.911661327516036e-07,5.561624573242989,5.561624573242989,4.39545079,117.7436223163239,0.0,-0.347617139166667
mp-21201,LaGa3Pd2,True,6.914903304251256e-07,5.443680852718185,5.443680852718185,4.2902142,110.10192683316592,0.0,-0.806249142499998
mp-4561,UAl3Pd2,True,6.915916230565041e-07,5.384230450411905,5.384230450411905,4.239651999999999,106.4407979381166,0.0,-0.614038081250001
mp-1217327,ThMn2Ni3,True,6.917469616431361e-07,5.0673335784792,5.0673335784792,3.984774,88.61215851123352,0.0,-0.22276005097701
mp-2903,UAl3Ni2,True,6.921972485520479e-07,5.147230026361218,5.147230026361218,4.031899,92.50973356051122,0.0,-0.405760176666665
mp-1222916,LaCu2Ni3,True,6.928213876945629e-07,5.0413617684543635,5.0413617684543635,3.92775182,86.45107486919093,0.0,-0.260674895833325
mp-4785,CeAl3Pd2,True,6.930193398411444e-07,5.432649333046886,5.432649333046886,4.22537958,107.99899323266564,0.0,-0.8546510016666651
mp-22505,GdAl3Pd2,True,6.931670360766109e-07,5.397874551917296,5.397874551917296,4.19298332,105.80333102324256,0.0,-0.8821796683333311
mp-1206289,PuAl3Pd2,True,6.9342061581645e-07,5.411781675498284,5.411781675498284,4.19459421,106.39007628359332,0.0,-0.5981468064583311
mp-1025102,CeAl3Pt2,True,6.93561826104625e-07,5.4669818726802974,5.4669818726802974,4.232217,109.54531960245728,0.0,-0.972391454999998
mp-11539,SmAl3Pd2,True,6.937597652040097e-07,5.425409813983222,5.425409813983222,4.19286401,106.88247597501189,0.0,-0.904612949999998
mp-12734,NdAl3Pd2,True,6.942148207675784e-07,5.4598964602613576,5.4598964602613576,4.20297352,108.5065860462458,0.0,-0.850864329583335
mp-1025065,LaMn2Ni3,True,6.942585775366993e-07,5.194251919607673,5.194251919607673,3.996973,93.3916103848987,0.0,-0.161230818477012
mp-30815,LaAl3Pd2,True,6.944663013987319e-07,5.513867927341381,5.513867927341381,4.23531601,111.51394249659404,0.0,-0.886161825833333
mp-1216696,UGa2Cu3,True,6.945079899366213e-07,5.239928103056423,5.239928103056423,4.023449,95.67088437494785,0.0,0.083847299166667
mp-20338,CeAl3Ni2,True,6.949455368473434e-07,5.250375460967173,5.250375460967173,4.01627272,95.88144046403252,0.0,-0.608201551666667
mp-1206258,NpAl3Pd2,True,6.949614330875871e-07,5.4736918594909945,5.4736918594909945,4.186524,108.62878133559572,0.0,-0.6399809227083321
mp-568354,DyGa2Cu3,True,6.950673505899779e-07,5.254933853117514,5.254933853117514,4.015535,96.03035950052984,0.0,-0.370124262462115
mp-30182,ThAl3Ni2,True,6.951033184969528e-07,5.29107450875102,5.29107450875102,4.04189658,97.99492465223388,0.0,-0.6543779616666661
mp-1222765,LaZn3Ni2,True,6.951217284290073e-07,5.2704711779187505,5.2704711779187505,4.02551774,96.83921536881076,0.0,-0.3680319325
mp-1217304,ThMn2Co3,True,6.951546060182835e-07,5.112965807445271,5.112965807445271,3.904109,88.38902491720074,0.0,-0.093379779310344
mp-1225217,EuAl2Ag3,True,6.956801001724489e-07,5.773417289615472,5.773417289615472,4.388458,126.6801225658643,0.0,-0.262397057222228
mp-1018742,LaNi2Rh3,True,6.957565838454427e-07,5.266544151354054,5.266544151354054,4.00053426,96.09484364153488,0.0,-0.361747004166661
mp-1206184,CeAl2Cu3,True,6.959176416536774e-07,5.31394041820962,5.31394041820962,4.030929,98.57553472985616,0.0,-0.297712648333335
mp-1025043,UAl2Cu3,True,6.959530230128017e-07,5.247966054474295,5.247966054474295,3.979668,94.92038894714852,0.0,-0.030452839999998
mp-1207556,YbGa2Cu3,True,6.959789112596107e-07,5.178751393412785,5.178751393412785,3.9263032110439178,91.19364887589786,0.0,-0.347933045833331
mp-1208292,TbAl3Cu2,True,6.95990042257918e-07,5.31329320012868,5.31329320012868,4.02791989,98.47795469049304,0.0,-0.495044373333333
mp-1207570,YbAl2Cu3,True,6.960232696943616e-07,5.187983344548176,5.187983344548176,3.9317966448830353,91.64712082279348,0.0,-0.386068554166667
mp-7186,NdAl3Ni2,True,6.966774713362558e-07,5.310009237507781,5.310009237507781,4.00161386,97.71390362761164,0.0,-0.610513811249999
mp-1226538,CeZn2Ni3,True,6.969996414429926e-07,5.148842127080399,5.148842127080399,3.86938259,88.83650341556111,0.0,-0.327140151666666
mp-30181,PrAl3Ni2,True,6.970022285780592e-07,5.33383609176521,5.33383609176521,4.00831703,98.75794106532426,0.0,-0.597241060277776
mp-1025136,EuAl3Cu2,True,6.970800241758656e-07,5.419676971280253,5.419676971280253,4.07009126,103.53366382224992,0.0,-0.37079765416667
mp-1222749,LaZn2Ni3,True,6.992071141047957e-07,5.231554117349707,5.231554117349707,3.85733155,91.4279633580815,0.0,-0.360053302500001
mp-16766,LaAl2Ag3,True,6.99673644301973e-07,5.8082098222418725,5.8082098222418725,4.265299,124.61338873947332,0.0,-0.297770308333331
mp-639756,DyIn3Cu2,True,7.002006381754657e-07,5.824156410667714,5.824156410667714,4.257596,125.07230111903816,0.0,-0.164820336378198
mp-568687,TbGa2Co3,True,7.003261548365944e-07,5.186030689844734,5.186030689844734,3.78700536,88.20571333103852,0.0,-0.370039908611105
mp-7225,CeAl2Pt3,True,7.02436729446201e-07,5.594426417600854,5.594426417600854,4.011468,108.72892542375862,0.0,-1.036073346666665
mp-1220219,NdGa2Pt3,True,7.027279030764306e-07,5.584433125919144,5.584433125919144,3.99424907,107.8757836527194,0.0,-0.8909984970833281
mp-1217305,ThAl2Ni3,True,7.029915560993583e-07,5.334513722506525,5.334513722506525,3.80682,93.81723891232008,0.0,-0.5330116516666651
mp-1223084,LaGa2Pt3,True,7.032879023010629e-07,5.6278707582774,5.6278707582774,4.00590355,109.88017723381894,0.0,-0.9221258483333332
mp-1220172,NdAl2Pt3,True,7.0377763769644e-07,5.581766550321328,5.581766550321328,3.9563234,106.7494765062476,0.0,-1.082197291250004
mp-10897,PrAl2Ni3,True,7.04095699182808e-07,5.321853048444981,5.321853048444981,3.76175416,92.26708457907692,0.0,-0.526097195277776
mp-1222903,LaAl2Pt3,True,7.050247664774506e-07,5.63695797264531,5.63695797264531,3.95265283,108.76994187153056,0.0,-1.206610494166663
mp-1219978,PrGa2Co3,True,7.056609819498606e-07,5.358789881551103,5.358789881551103,3.737016,92.93708494287696,0.0,-0.367965476111114
mp-1018746,LaGe2Ir3,True,7.090675073349417e-07,5.6941738538284,5.6941738538284,3.855797,108.26952675155822,0.0,-0.675642350833333
mp-571071,HoSi2Rh3,True,7.109489577661878e-07,5.475084946588239,5.475084946588239,3.64768799,94.69565194561818,0.0,-1.013694912499995
mp-30621,DySi2Rh3,True,7.110790317889404e-07,5.483426710237635,5.483426710237635,3.64914379,95.0223342188858,0.0,-1.017564743611113
mp-754875,TbSi2Rh3,True,7.112970140077093e-07,5.494152130081053,5.494152130081053,3.64940435,95.40123093889196,0.0,-1.021624016111112
mp-1071252,LaGa2Rh3,True,7.113575300517378e-07,5.676757359931606,5.676757359931606,3.7687267,105.17824975874088,0.0,-0.814432501666665
mp-569601,ErSi2Rh3,True,7.11403251559391e-07,5.435096109308468,5.435096109308468,3.60686629,92.27310415116084,0.0,-1.011985113333333
mp-571044,CeSi2Ir3,True,7.116718796335592e-07,5.526395197009281,5.526395197009281,3.65895556,96.77688593277826,0.0,-0.9145571933333332
mp-622508,GdSi2Rh3,True,7.117083404562747e-07,5.512994758648954,5.512994758648954,3.648934022074089,96.04434556033624,0.0,-1.019235991666669
mp-568555,SmSi2Rh3,True,7.121199434617168e-07,5.533836233399002,5.533836233399002,3.64973037,96.7930151022284,0.0,-1.017576474166665
mp-30028,YSi2Rh3,True,7.122858735215512e-07,5.471937707216056,5.471937707216056,3.60373789,93.44716216558191,0.0,-1.014111471666666