material_id,formula_pretty,is_fit,rms_A,a_A,b_A,c_A,volume_A3,band_gap,formation_energy_per_atom
mp-1024974,YSi2Ru3,True,7.134056289494992e-07,5.573889853684991,5.573889853684991,3.635548,97.81766223619984,0.0,-0.661284396666665
mp-29742,NdSi2Rh3,True,7.137647968883695e-07,5.543574983866496,5.543574983866496,3.6045745,95.93221901857754,0.0,-1.008397031249999
mp-29726,LaSi2Rh3,True,7.140513447480132e-07,5.620108013068423,5.620108013068423,3.64530382,99.71343723387884,0.0,-1.016716155833329
mp-1206515,SmSi2Ru3,True,7.149053080743616e-07,5.619053779494102,5.619053779494102,3.617832,98.92485102776628,0.0,-0.70731269333333
mp-1025056,ThSi2Ru3,True,7.152974497732442e-07,5.645039980350183,5.645039980350183,3.622271,99.96445781914842,0.0,-0.813271009999998
mp-1025017,NdSi2Ru3,True,7.15554411500544e-07,5.652501858429812,5.652501858429812,3.619016,100.13884143247778,0.0,-0.6960173295833321
mp-30043,CeSi2Ru3,True,7.1567227134789e-07,5.6297941636471025,5.6297941636471025,3.600809,98.83613412652892,0.0,-0.685222316666666
mp-7804,HfCo3B2,True,7.171597963084425e-07,4.765324955013631,4.765324955013631,3.00897377,59.17442901221091,0.0,-0.524730527500009
mp-10059,ZrCo3B2,True,7.185057561665406e-07,4.828893518807041,4.828893518807041,3.01385539,60.862291513667834,0.0,-0.481410456666665
mp-10056,UCo3B2,True,7.221404105455457e-07,4.959258077004362,4.959258077004362,2.99949579,63.88697234388867,0.0,-0.429198554722222
mp-15709,LuCo3B2,True,7.223969094182136e-07,4.91764138809985,4.91764138809985,2.96773699,62.1540956806822,0.0,-0.530217765833327
mp-4938,ScCo3B2,True,7.22535427724342e-07,4.868916665760395,4.868916665760395,2.93481571,60.2526496016756,0.0,-0.533771542222221
mp-569482,LaSi2Ru3,True,7.22645994134208e-07,5.799268254891123,5.799268254891123,3.49226,101.7146707858733,0.0,-0.629874615833332
mp-10058,YbCo3B2,True,7.226769799526777e-07,4.929065931307202,4.929065931307202,2.967438054202079,62.436931045956854,0.0,-0.461221055
mp-5714,TmCo3B2,True,7.229054119639778e-07,4.9396340065953,4.9396340065953,2.96793332,62.71541708660798,0.0,-0.51652093138889
mp-5353,ErCo3B2,True,7.231921027166092e-07,4.951747255293978,4.951747255293978,2.967846289999999,63.02153472303139,0.0,-0.506680013055556
mp-5313,HoCo3B2,True,7.235006136086238e-07,4.966661056900568,4.966661056900568,2.9688555,63.42328582930797,0.0,-0.493031105555554
mp-10115,ThB2Ir3,True,7.239672079246329e-07,5.462292007607659,5.462292007607659,3.25197657,84.02874285918782,0.0,-0.756167947500003
mp-10116,UB2Ir3,True,7.252323436260063e-07,5.428118571512671,5.428118571512671,3.19647148,81.56430071528838,0.0,-0.51198325972222
mp-1076960,TmB2Rh3,True,7.254411664440056e-07,5.342058404462209,5.342058404462209,3.14011735,77.60572738739924,0.0,-0.7084284563888891
mp-5678,ErB2Rh3,True,7.25490789349318e-07,5.348522517938344,5.348522517938344,3.1425681678177595,77.85437021360003,0.0,-0.708032856388887
mp-1025051,YbB2Rh3,True,7.254920620885725e-07,5.337565229230915,5.337565229230915,3.136095607381508,77.37600748066703,0.0,-0.7892594549999971
mp-1025027,HoB2Rh3,True,7.25616854039284e-07,5.357541011896505,5.357541011896505,3.144437152336119,78.16360099737204,0.0,-0.704134870555551
mp-1025143,DyB2Rh3,True,7.257481653671025e-07,5.366159165524126,5.366159165524126,3.145920826993198,78.4522711219588,0.0,-0.702099826666663
mp-1024941,YB2Rh3,True,7.258264428009687e-07,5.373644533067184,5.373644533067184,3.1481772559453627,78.7277206152889,0.0,-0.690504718055553
mp-1072051,TbB2Rh3,True,7.261967116566393e-07,5.379841398212221,5.379841398212221,3.14173113,78.74782944859419,0.0,-0.700394332499997
mp-20193,DyCo3B2,True,7.263887370429229e-07,5.022953732134226,5.022953732134226,2.92844765,63.986219583282065,0.0,-0.482290623333333
mp-2947,SmB2Rh3,True,7.265178339773018e-07,5.411187081556262,5.411187081556262,3.15127231,79.91009799735181,0.0,-0.6756441605555691
mp-5019,YCo3B2,True,7.265795026124087e-07,5.032871952936554,5.032871952936554,2.92939292,64.25989648056111,0.0,-0.464740489722222
mp-22117,GdB2Rh3,True,7.266220592973625e-07,5.398516235309899,5.398516235309899,3.14106055,79.278561919261,0.0,-0.748586694166666
mp-3040,TbCo3B2,True,7.267009167579051e-07,5.036894084513901,5.036894084513901,2.928657,64.34647783503164,0.0,-0.470916637499999
mp-5197,ErB2Ir3,True,7.268056645165515e-07,5.415991283787383,5.415991283787383,3.1462279850682653,79.92391235612808,0.0,-0.696248044722218
mp-1072182,HoB2Ir3,True,7.268500112097982e-07,5.423128568656439,5.423128568656439,3.14916601,80.20953307226002,0.0,-0.692913722222217
mp-1025071,YbB2Ir3,True,7.268950753351323e-07,5.407580164291697,5.407580164291697,3.138913493149912,79.49062492974019,0.0,-0.7700819833333361
mp-1077393,TmB2Ir3,True,7.269500778220125e-07,5.413361310704604,5.413361310704604,3.14077473,79.70791502828688,0.0,-0.6948531963888911
mp-1024993,DyB2Ir3,True,7.26983452568897e-07,5.431051527323231,5.431051527323231,3.1501289279124083,80.46866697633666,0.0,-0.692621191666667
mp-1024990,LuB2Ir3,True,7.269980143671568e-07,5.4040536178223775,5.4040536178223775,3.1340747936975184,79.26460266381167,0.0,-0.689254534166671
mp-21252,GdCo3B2,True,7.270636332252425e-07,5.059458550888167,5.059458550888167,2.93256239,65.01086983183575,0.0,-0.453760251388885
mp-1025075,TbB2Ir3,True,7.271017634006945e-07,5.438884104331385,5.438884104331385,3.1514454260708056,80.73466207167387,0.0,-0.691070704166662
mp-31098,YB2Ir3,True,7.27103070326037e-07,5.436893062448734,5.436893062448734,3.1502561455087483,80.6451178984302,0.0,-0.680867834722216
mp-3055,NdB2Rh3,True,7.272286782245197e-07,5.442591621932674,5.442591621932674,3.15013371,80.81111842746164,0.0,-0.652754732638901
mp-1025024,LuB2Rh3,True,7.275575923258166e-07,5.403814345835992,5.403814345835992,3.118804,78.87140078083597,0.0,-0.7633483161111201
mp-1077270,GdB2Ir3,True,7.2760409832127e-07,5.457449976084185,5.457449976084185,3.14849292,81.2106300589764,0.0,-0.6822137580555551
mp-3465,LaB2Rh3,True,7.27720680735107e-07,5.476198490701467,5.476198490701467,3.15612487,81.96777975233732,0.0,-0.657990270555555
mp-5410,SmCo3B2,True,7.277786302938741e-07,5.089332746852592,5.089332746852592,2.93169067,65.76131206160173,0.0,-0.412496965555555
mp-1080381,SmB2Ir3,True,7.27912056005307e-07,5.475315578625369,5.475315578625369,3.15039644,81.79262581686842,0.0,-0.6645579705555531
mp-5369,PrB2Rh3,True,7.281645571716145e-07,5.469149905845341,5.469149905845341,3.13998285,81.33876279530209,0.0,-0.633835919999998
mp-1072199,PuB2Ir3,True,7.289523706743731e-07,5.479551898953096,5.479551898953096,3.124587,81.24812409921172,0.0,-0.471421357847219
mp-4454,CeCo3B2,True,7.30044000806715e-07,5.118881772896692,5.118881772896692,2.89148443,65.61478164759072,0.0,-0.477511533055555
mp-1077776,ScB2Ir3,True,7.309150964128943e-07,5.429668533234626,5.429668533234626,3.04400601,77.71820706667967,0.0,-0.620235400555556
mp-3223,ThB2Ru3,True,7.316296127448008e-07,5.521006487258648,5.521006487258648,3.07613235,81.20301668597259,0.0,-0.5140223647222201
mp-5757,CeB2Rh3,True,7.317079652991062e-07,5.495379064079958,5.495379064079958,3.05977801,80.02319012385252,0.0,-0.765778537499999
mp-10065,UFe3B2,True,7.323247609217677e-07,5.067261620089159,5.067261620089159,2.806384699999999,62.405733224119054,0.0,-0.422291589722219
mp-5578,LuB2Ru3,True,7.323844209317742e-07,5.4387868332017355,5.4387868332017355,3.01059029,77.12343480312059,0.0,-0.485952925833333
mp-3268,YbB2Ru3,True,7.3239008090067e-07,5.443656320580011,5.443656320580011,3.013138133165744,77.32698385454917,0.0,-0.5301658075000021
mp-5620,TmB2Ru3,True,7.324939409186896e-07,5.451224739388787,5.451224739388787,3.01461616,77.58018822680374,0.0,-0.484045333055558
mp-3093,ErB2Ru3,True,7.325539838100213e-07,5.4570995779807765,5.4570995779807765,3.01629707,77.790847171914,0.0,-0.481723831388886
mp-2985,HoB2Ru3,True,7.325894024062685e-07,5.464588198916613,5.464588198916613,3.01951042,78.08759443251444,0.0,-0.475197755555555
mp-3092,DyB2Ru3,True,7.326990058532156e-07,5.472512401464647,5.472512401464647,3.02102166,78.35342399110901,0.0,-0.471399321666666
mp-4382,YB2Ru3,True,7.327391666076894e-07,5.4788864097489665,5.4788864097489665,3.02348913,78.60019734227382,0.0,-0.460677926388889
mp-3186,TbB2Ru3,True,7.328271859497374e-07,5.481132603736179,5.481132603736179,3.02242509,78.6369744040918,0.0,-0.4672984075
mp-22335,GdB2Ru3,True,7.331235543551193e-07,5.498807539551921,5.498807539551921,3.0244028,79.1967394776181,0.0,-0.45981140138889
mp-2880,LuB2Os3,True,7.332951465570286e-07,5.5197057326487,5.5197057326487,3.031391,79.98424301728728,0.0,-0.345800379166667
mp-3467,SmB2Ru3,True,7.333330595968103e-07,5.51436545687996,5.51436545687996,3.0274644,79.72614527246182,0.0,-0.479623629999998
mp-11593,CeB2Ir3,True,7.336433715125133e-07,5.569129991183268,5.569129991183268,3.04932862,81.90484102557818,0.0,-0.671960808055558
mp-7099,NdB2Ru3,True,7.336939838709372e-07,5.570778317466096,5.570778317466096,3.048895,81.94167794963676,0.0,-0.471307997916663
mp-5939,PrB2Ru3,True,7.338786038887013e-07,5.586161912680699,5.586161912680699,3.052432,82.4904491530215,0.0,-0.385567368333332
mp-10137,UB2Ru3,True,7.342752591179032e-07,5.478122725568181,5.478122725568181,2.9831347900000003,77.52950722052441,0.0,-0.538875150833334
mp-5940,CeB2Ru3,True,7.34668871011928e-07,5.518839468647868,5.518839468647868,2.9950831300000003,79.00144514016999,0.0,-0.508995821388885
mp-29723,LaB2Ru3,True,7.348782350056798e-07,5.5810247360705345,5.5810247360705345,3.02334573,81.55420143927627,0.0,-0.41492621888889
mp-10132,UB2Os3,True,7.351454250750682e-07,5.533246916409967,5.533246916409967,2.99053707,79.29392637532396,0.0,-0.325224368055548
mp-10112,LaB2Ir3,True,7.352675475390569e-07,5.629807586091189,5.629807586091189,3.03950916,83.42979799744016,0.0,-0.650002868888892
mp-1077278,PuB2Os3,True,7.372998313482984e-07,5.5969748210060875,5.5969748210060875,2.9690652445786703,80.54842988978591,0.0,0.00470473215278
mp-1072629,PuB2Ru3,True,7.376607901243997e-07,5.567123649251908,5.567123649251908,2.944010999999999,79.01904830417178,0.0,-0.341663132847218
mp-1025068,NdB2Ir3,True,7.385704290854199e-07,5.655732125303495,5.655732125303495,2.967394227521133,82.20221923104491,0.0,-0.7180019037500021
mp-21127,EuB2Rh3,True,7.38856145983751e-07,5.611641341716154,5.611641341716154,2.9369823,80.09617430618283,0.0,-0.592521515555553
mp-28705,CaB2Rh3,True,7.389037562497381e-07,5.569696943618866,5.569696943618866,2.9138276,78.281225260047,0.0,-0.6132523613888891
mp-11594,PrB2Ir3,True,7.389392044463136e-07,5.674472583753085,5.674472583753085,2.96773018,82.75724967399898,0.0,-0.6186925749999971
mp-22217,CePd5,True,6.816587666761964e-07,5.333330317499789,5.333330317499789,4.5262,111.49652620960788,0.0,-0.516005744166662
mp-1025030,ErPt5,True,6.825046568648444e-07,5.281949782595341,5.281949782595341,4.44985332,107.51396119634452,0.0,-0.73209813555556
mp-30753,LaPd5,True,6.828135233132508e-07,5.341155570885045,5.341155570885045,4.48770342,110.87285608631186,0.0,-0.5971245724999981
mp-510098,EuAu5,True,6.835028324794547e-07,5.591561790763714,5.591561790763714,4.67011622,126.45167232066552,0.0,-0.429996902500006
mp-11826,CaPd5,True,6.836673211048204e-07,5.304889514078509,5.304889514078509,4.42437395,107.82889251590048,0.0,-0.366331009999998
mp-570673,ScNi5,True,6.83769297338962e-07,4.699056277474616,4.699056277474616,3.91563614,74.87800288499251,0.0,-0.283420650833331
mp-30620,DyRh5,True,6.838769850585556e-07,5.1727665228020925,5.1727665228020925,4.3063494,99.78968431543474,0.0,-0.294621025277776
mp-11562,TbRh5,True,6.840457337757907e-07,5.180247976603548,5.180247976603548,4.30627574,100.0768360057453,0.0,-0.297762254444445
mp-1805,ErRh5,True,6.842445254761383e-07,5.226866113372619,5.226866113372619,4.33755,102.62611231020594,0.0,-0.291512288333332
mp-11565,YRh5,True,6.849973653507024e-07,5.253195919001164,5.253195919001164,4.331052,103.50735863879748,0.0,-0.285145789999999
mp-764,CeCo5,True,6.850101754470624e-07,4.879734855327692,4.879734855327692,4.02270156,82.95468057227991,0.0,-0.08812799
mp-542568,EuAg5,True,6.851403232224471e-07,5.633948908259978,5.633948908259978,4.63921701,127.52670196155596,0.0,-0.173007971666668
mp-30507,CeIr5,True,6.851945023356899e-07,5.274166563560572,5.274166563560572,4.34091943,104.57311361487676,0.0,-0.365940813333336
mp-571283,GdRh5,True,6.852000584008723e-07,5.264903734785654,5.264903734785654,4.333087,104.01809845978562,0.0,-0.303516111388892
mp-7751,PuPt5,True,6.852131758438561e-07,5.359593885681384,5.359593885681384,4.410516888772809,109.71951699875557,0.0,-0.440962174791662
mp-542777,CePt5,True,6.852340781864391e-07,5.368539330100849,5.368539330100849,4.41707814,110.24984615183966,0.0,-0.7909169800000011
mp-312,ThIr5,True,6.854438301375349e-07,5.304912416906407,5.304912416906407,4.35680152,106.18296386719138,0.0,-0.477050741666668
mp-30481,CaPt5,True,6.85550135034511e-07,5.355657329549133,5.355657329549133,4.39442717,109.15872805275094,0.0,-0.600580696666668
mp-2645,YbNi5,True,6.858065900544978e-07,4.778504634081861,4.778504634081861,3.912157779019854,77.36259276778591,0.0,-0.327261972499999
mp-2359,NdPt5,True,6.859528293175301e-07,5.387256434815897,5.387256434815897,4.40495674,110.7152835139676,0.0,-0.6934569879166661
mp-11491,LuNi5,True,6.859923985939845e-07,4.775141807220454,4.775141807220454,3.90311511,77.07517828556959,0.0,-0.322797154444441
mp-1607,YbCu5,True,6.860317125091768e-07,4.931643560871627,4.931643560871627,4.029663795387712,84.87558978806425,0.0,-0.209092989166668
mp-1910,CeNi5,True,6.860788055496137e-07,4.841253420938829,4.841253420938829,3.95419173,80.26089326538036,0.0,-0.34413840833333
mp-1831,SrAu5,True,6.861552597515464e-07,5.6618475986812165,5.6618475986812165,4.62136593,128.29724786799062,0.0,-0.484339630000003
mp-11526,TmNi5,True,6.862952796562748e-07,4.79307388585586,4.79307388585586,3.90750342,77.74245411602357,0.0,-0.338314189999998
mp-1037,PrPt5,True,6.864172232417844e-07,5.4038860871460095,5.4038860871460095,4.40080896,111.2949654692121,0.0,-0.6931851386111051
mp-1225307,DyCu5,True,6.864827239807695e-07,4.972356856287213,4.972356856287213,4.04708309,86.65573928588626,0.0,-0.203688029166668
mp-853,ErNi5,True,6.865090817629819e-07,4.803375279526068,4.803375279526068,3.90865337,78.09996274759276,0.0,-0.336448439999999
mp-30585,HoCu5,True,6.86547272507221e-07,4.965170854711582,4.965170854711582,4.03897452,86.23233378956428,0.0,-0.204240175833331
mp-11363,TbCu5,True,6.866497257764091e-07,4.985646226553335,4.985646226553335,4.0520315,87.22608119955922,0.0,-0.202359306666667
mp-1553,HoNi5,True,6.868416773899273e-07,4.816855128016352,4.816855128016352,3.90834211,78.53267177547454,0.0,-0.330538952499998
mp-1179,DyNi5,True,6.870060234854291e-07,4.826320561675494,4.826320561675494,3.91044943,78.88412887435396,0.0,-0.327578571944444
mp-1832,LaPt5,True,6.871389675896623e-07,5.428545537090406,5.428545537090406,4.39332866,112.1221186959324,0.0,-0.849367524166666
mp-30808,TbNi5,True,6.872579488836524e-07,4.837043152620716,4.837043152620716,3.91059117,79.23790248226774,0.0,-0.324195884444442
mp-569264,NdIr5,True,6.873759008536386e-07,5.359867632401975,5.359867632401975,4.328851,107.69893238656506,0.0,-0.323681501805557
mp-1260,SrPd5,True,6.873771474279879e-07,5.427307114435475,5.427307114435475,4.38327057,111.8143919811912,0.0,-0.373467988333334
mp-227,SmCu5,True,6.874044727032062e-07,5.030685406990678,5.030685406990678,4.06198402,89.02729162430869,0.0,-0.180468101666666
mp-1206486,SrIn5,True,6.874653560194996e-07,6.408541491981053,6.408541491981053,5.171793,183.94592307116153,0.0,-0.13414555222222
mp-2740,ErCo5,True,6.874783638933259e-07,4.894321919329274,4.894321919329274,3.949348999999999,81.92967041863893,0.0,-0.103211511666666
mp-636253,GdCu5,True,6.875093767509665e-07,5.015705366723045,5.015705366723045,4.04620881,88.15418961944873,0.0,-0.165827425000001
mp-809,ThCo5,True,6.875163507587076e-07,4.949016867041039,4.949016867041039,3.992169419999999,84.67933977013192,0.0,-0.045426178333334
mp-2152,YNi5,True,6.875249973563236e-07,4.84287462004907,4.84287462004907,3.90625613,79.341023559074,0.0,-0.311606001666666
mp-1567,ThNi5,True,6.875273747820521e-07,4.900281695073559,4.900281695073559,3.95247917,82.19441603350883,0.0,-0.408373441666666
mp-2410,SrAg5,True,6.875536182525414e-07,5.710445710868307,5.710445710868307,4.60489563,130.04403525941987,0.0,-0.174919125833334
mp-2797,YCu5,True,6.87572371680329e-07,5.002701440381511,5.002701440381511,4.03351611,87.42257569256357,0.0,-0.192909463333334
mp-21305,GdNi5,True,6.876955230532318e-07,4.86184628625227,4.86184628625227,3.91576835,80.15859037708837,0.0,-0.31015598833333
mp-1525815,AcMg5,True,6.877307660787208e-07,6.170180370311531,6.170180370311531,4.96799329,163.7975312572725,0.0,-0.035826379583333
mp-21315,PuNi5,True,6.877866653570536e-07,4.853644395271152,4.853644395271152,3.906076419999999,79.690632928973,0.0,-0.128845209791663
mp-2827,YCo5,True,6.879270274784176e-07,4.927555707902441,4.927555707902441,3.960738,83.28558344400808,0.0,-0.076484268333333
mp-761,CeCu5,True,6.879466087422029e-07,5.062628174738114,5.062628174738114,4.068618,90.3087043065683,0.0,-0.104226895000001
mp-1384,LaIr5,True,6.879817910864859e-07,5.39074009301246,5.39074009301246,4.330987,108.99693825696768,0.0,-0.304425874166666
mp-1140,NdCu5,True,6.880574416169787e-07,5.067205452979442,5.067205452979442,4.06838753,90.46695503755969,0.0,-0.161857172916666
mp-2551,DyCo5,True,6.881055632039298e-07,4.919766287228176,4.919766287228176,3.948363999999999,82.76310193269103,0.0,-0.089085241944444
mp-1075,SmNi5,True,6.881095164044432e-07,4.883849295271007,4.883849295271007,3.91940452,80.96088167793201,0.0,-0.298547072499999
mp-569927,ErZn5,True,6.88180264056951e-07,5.202505371577024,5.202505371577024,4.17257486,97.80472659036953,0.0,-0.314687268055555
mp-2689,ThFe5,True,6.883025115682858e-07,5.087561237066331,5.087561237066331,4.076066040000006,91.36737398023504,0.0,-0.054154229999998
mp-1200,TbCo5,True,6.884020340168126e-07,4.931247982523086,4.931247982523086,3.947425,83.13008120258205,0.0,-0.083006252777778
mp-1824,NdNi5,True,6.884845985975674e-07,4.910608968953575,4.910608968953575,3.928092399999999,82.03194939680712,0.0,-0.275781184583332
mp-570832,SrPt5,True,6.885060147328385e-07,5.453203710983601,5.453203710983601,4.36131516,112.3185649261178,0.0,-0.6072094099999951
mp-2462,PrCu5,True,6.885120638438975e-07,5.090523924340454,5.090523924340454,4.07104093,91.36104663428486,0.0,-0.14531633361111
mp-774,CaNi5,True,6.886175086385914e-07,4.874935328541703,4.874935328541703,3.89506798,80.16474044956486,0.0,-0.110968449999998
mp-30627,DyZn5,True,6.886661470569529e-07,5.228748247115186,5.228748247115186,4.17600377,98.87510956472768,0.0,-0.332018231666666
mp-11317,CeFe5,True,6.887140017447775e-07,5.072085778061878,5.072085778061878,4.04920399,90.21390188050768,0.0,-0.007688359999998
mp-1429,SmCo5,True,6.888078390818704e-07,4.967980482595695,4.967980482595695,3.96287,84.70327832217713,0.0,-0.0452820975
mp-2435,HoCo5,True,6.888450415881206e-07,4.90548187140989,4.90548187140989,3.91175478,81.52026894462401,0.0,-0.094829354166664
mp-2317,LaNi5,True,6.889182784416133e-07,4.946427617566541,4.946427617566541,3.94190367,83.5256675642372,0.0,-0.281709887499998
mp-2370,PrNi5,True,6.889265194380836e-07,4.931975990160959,4.931975990160959,3.930106239999999,82.78979927163114,0.0,-0.258546331944445
mp-1882,CaCu5,True,6.890212293804281e-07,5.045628192250579,5.045628192250579,4.01737319,88.57339631418444,0.0,-0.11010331
mp-30885,YZn5,True,6.891322759609189e-07,5.245611140261175,5.245611140261175,4.17258454,99.432409194605,0.0,-0.332843220833332
mp-2613,LaCu5,True,6.892970373517861e-07,5.128458736699822,5.128458736699822,4.07357675,92.78553282535592,0.0,-0.141133305833333
mp-567406,SmZn5,True,6.894471716680955e-07,5.29025351364626,5.29025351364626,4.19662876,101.71480079797624,0.0,-0.302269682499999
mp-394,CeZn5,True,6.895125785307251e-07,5.331996142233095,5.331996142233095,4.22734568,104.08257959839216,0.0,-0.260032284999997
mp-1734,CaZn5,True,6.898721343697841e-07,5.307016599228598,5.307016599228598,4.19445313,102.30735800603374,0.0,-0.227941309999998